% Model:              loudspeaker_radiation_BEM_60.mph
% Version:            COMSOL 6.1.0.357
% Date:               Oct 31 2023, 11:09
% Dimension:          3
% Nodes:              1682
% Elements:           3360
% Expressions:        1
% Description:        Radiation pattern
% Coordinates
0                         0.002                    1
0.10811901842394177       0.002                    0.9941379571543596
0.10752673112833584       0.013301514845861744     0.9941379571543596
0.21497044021102404       0.002                    0.9766205557100865
0.21379280964681974       0.024470529763229318     0.9766205557100865
0.31930153013598          0.002                    0.9476531711828023
0.3175523629448247        0.03537609826412433      0.9476531711828023
0.4198891015602646        0.002                    0.907575419670957
0.4175889051281958        0.04589036252893013      0.907575419670957
0.5155538571770217        0.002                    0.8568571761675893
0.5127295992041158        0.055890052422425375     0.8568571761675893
0.6051742151937651        0.002                    0.7960930657056438
0.6018590075225106        0.06525793072341249      0.7960930657056438
0.6876994588534232        0.002                    0.725995491923131
0.6839321692626424        0.07388416762394522      0.725995491923131
0.7621620551276365        0.002                    0.6473862847818277
0.7579868516433155        0.08166762838340842      0.6473862847818277
0.8276889981568905        0.002                    0.5611870653623825
0.823154831222458         0.08851705904088342      0.5611870653623825
0.8835120444460229        0.002                    0.46840844069979015
0.878672073023157         0.09435215628440552      0.46840844069979015
0.9289767198167913        0.002                    0.37013815533991457
0.9238876881451967        0.09910450893387467      0.37013815533991457
0.9635499925192229        0.002                    0.2675283385292208
0.9582715648423032        0.10271839999959335      0.2675283385292208
0.9868265225415263        0.002                    0.16178199655276462
0.9814205835976809        0.10515145991302813      0.16178199655276462
0.9985334138511238        0.002                    0.05413890858541761
0.9930633433317722        0.1063751632712618       0.05413890858541761
0.9985334138511238        0.002                    -0.05413890858541726
0.9930633433317722        0.1063751632712618       -0.05413890858541726
0.9868265225415263        0.002                    -0.16178199655276473
0.9814205835976809        0.10515145991302813      -0.16178199655276473
0.9635499925192229        0.002                    -0.26752833852922087
0.9582715648423032        0.10271839999959335      -0.26752833852922087
0.9289767198167915        0.002                    -0.37013815533991423
0.923887688145197         0.0991045089338747       -0.37013815533991423
0.883512044446023         0.002                    -0.46840844069979004
0.8786720730231571        0.09435215628440553      -0.46840844069979004
0.8276889981568905        0.002                    -0.5611870653623824
0.823154831222458         0.08851705904088342      -0.5611870653623824
0.7621620551276365        0.002                    -0.6473862847818276
0.7579868516433155        0.08166762838340842      -0.6473862847818276
0.6876994588534235        0.002                    -0.7259954919231306
0.6839321692626428        0.07388416762394524      -0.7259954919231306
0.6051742151937655        0.002                    -0.7960930657056434
0.601859007522511         0.06525793072341253      -0.7960930657056434
0.5155538571770216        0.002                    -0.8568571761675893
0.5127295992041156        0.05589005242242536      -0.8568571761675893
0.41988910156026443       0.002                    -0.9075754196709571
0.41758890512819563       0.04589036252893011      -0.9075754196709571
0.3193015301359798        0.002                    -0.9476531711828026
0.3175523629448245        0.03537609826412431      -0.9476531711828026
0.21497044021102424       0.002                    -0.9766205557100865
0.21379280964681993       0.02447052976322934      -0.9766205557100865
0.10811901842394193       0.002                    -0.9941379571543596
0.10752673112833601       0.013301514845861761     -0.9941379571543596
1.2246467991473532E-16    0.002                    -1
0.10575635846507277       0.024479207930078205     0.9941379571543596
0.21027282032110317       0.046694867700112046     0.9766205557100865
0.31232402561314176       0.06838652101126934      0.9476531711828023
0.410713517265446         0.08929985306134447      0.907575419670957
0.5042877684467629        0.10918967415329218      0.8568571761675893
0.5919497066177452        0.12782279432024624      0.7960930657056438
0.6726715757034124        0.14498075726467333      0.725995491923131
0.7455069855934441        0.16046240155872518      0.6473862847818277
0.8096020077009296        0.17408621907805638      0.5611870653623825
0.8642051864942968        0.18569248301862795      0.46840844069979015
0.9086763496263551        0.19514512054744493      0.37013815533991457
0.9424941133697542        0.20233330813211098      0.2675283385292208
0.9652619953644787        0.2071727708454184       0.16178199655276462
0.9767130630110129        0.20960677041181655      0.05413890858541761
0.9767130630110129        0.20960677041181655      -0.05413890858541726
0.9652619953644787        0.2071727708454184       -0.16178199655276473
0.9424941133697542        0.20233330813211098      -0.26752833852922087
0.9086763496263554        0.19514512054744498      -0.37013815533991423
0.8642051864942969        0.18569248301862798      -0.46840844069979004
0.8096020077009296        0.17408621907805638      -0.5611870653623824
0.7455069855934441        0.16046240155872518      -0.6473862847818276
0.6726715757034127        0.14498075726467338      -0.7259954919231306
0.5919497066177455        0.12782279432024632      -0.7960930657056434
0.5042877684467628        0.10918967415329217      -0.8568571761675893
0.41071351726544586       0.08929985306134444      -0.9075754196709571
0.31232402561314154       0.06838652101126928      -0.9476531711828026
0.21027282032110337       0.04669486770011209      -0.9766205557100865
0.10575635846507292       0.02447920793007824      -0.9941379571543596
0.10282729700752558       0.035410614108136056     0.9941379571543596
0.20444903797353212       0.06842951931347         0.9766205557100865
0.3036738008988371        0.10066959914194225      0.9476531711828023
0.3993382661602072        0.13175286813495002      0.907575419670957
0.4903208553693074        0.1613149033832542       0.8568571761675893
0.5755548808538359        0.18900911705239495      0.7960930657056438
0.654041051595199         0.2145108198081627       0.725995491923131
0.7248591890020447        0.2375210275021752       0.6473862847818277
0.787179015162918         0.2577699664876537       0.5611870653623825
0.8402698870956434        0.275020236468775        0.46840844069979015
0.8835093628682564        0.2890695938020825       0.37013815533991457
0.9163904991615534        0.29975332261829335      0.2675283385292208
0.9385277947160048        0.30694616596526375      0.16178199655276462
0.9496617099815566        0.3105637943312298       0.05413890858541761
0.9496617099815566        0.3105637943312298       -0.05413890858541726
0.9385277947160048        0.30694616596526375      -0.16178199655276473
0.9163904991615534        0.29975332261829335      -0.26752833852922087
0.8835093628682567        0.2890695938020826       -0.37013815533991423
0.8402698870956435        0.27502023646877505      -0.46840844069979004
0.787179015162918         0.2577699664876537       -0.5611870653623824
0.7248591890020447        0.2375210275021752       -0.6473862847818276
0.6540410515951993        0.21451081980816278      -0.7259954919231306
0.5755548808538361        0.18900911705239506      -0.7960930657056434
0.4903208553693073        0.16131490338325416      -0.8568571761675893
0.399338266160207         0.13175286813494996      -0.9075754196709571
0.3036738008988369        0.10066959914194218      -0.9476531711828026
0.2044490379735323        0.06842951931347005      -0.9766205557100865
0.10282729700752574       0.035410614108136104     -0.9941379571543596
0.09877163816596869       0.04597596660640467      0.9941379571543596
0.19638526918221136       0.08943635521195893      0.9766205557100865
0.2916964624740566        0.13187163249647496      0.9476531711828023
0.3835877814440125        0.17278428363273576      0.907575419670957
0.4709818843941905        0.21169464519296236      0.8568571761675893
0.55285415537269          0.24814652876394397      0.7960930657056438
0.6282447168588196        0.2817125693390857       0.725995491923131
0.6962696834494019        0.3119992357823678       0.6473862847818277
0.7561315246069824        0.3386514446211058       0.5611870653623825
0.807128414976192         0.36135672307501254      0.46840844069979015
0.848662462644353         0.3798488725138499       0.37013815533991457
0.8802467188774983        0.39391108939298114      0.2675283385292208
0.9015108871490551        0.40337850707670586      0.16178199655276462
0.9122056645280536        0.4081401287488248       0.05413890858541761
0.9122056645280536        0.4081401287488248       -0.05413890858541726
0.9015108871490551        0.40337850707670586      -0.16178199655276473
0.8802467188774983        0.39391108939298114      -0.26752833852922087
0.8486624626443531        0.37984887251384997      -0.37013815533991423
0.8071284149761921        0.3613567230750126       -0.46840844069979004
0.7561315246069824        0.3386514446211058       -0.5611870653623824
0.6962696834494019        0.3119992357823678       -0.6473862847818276
0.6282447168588199        0.2817125693390859       -0.7259954919231306
0.5528541553726903        0.24814652876394408      -0.7960930657056434
0.47098188439419036       0.21169464519296233      -0.8568571761675893
0.38358778144401234       0.1727842836327357       -0.9075754196709571
0.2916964624740564        0.13187163249647488      -0.9476531711828026
0.19638526918221152       0.08943635521195901      -0.9766205557100865
0.09877163816596884       0.04597596660640474      -0.9941379571543596
0.09363381658737134       0.05605950921197088      0.9941379571543596
0.18616986228547064       0.10948522010551201      0.9766205557100865
0.2765232365650012        0.16165076506798998      0.9476531711828023
0.36363462872341334       0.21194455078013227      0.907575419670957
0.4464827373343551        0.2597769285885108       0.8568571761675893
0.5240962440731113        0.3045871075968825       0.7960930657056438
0.5955652015358758        0.34584972942671155      0.725995491923131
0.660051701541089         0.3830810275638182       0.6473862847818277
0.7167996988367586        0.4158444990784452       0.5611870653623825
0.765143875039782         0.4437560222230114       0.46840844069979015
0.8045174388856801        0.4664883599083956       0.37013815533991457
0.8344587713379529        0.4837749962596114       0.2675283385292208
0.8546168376492188        0.4954132612707631       0.16178199655276462
0.8647553029226736        0.5012667069255619       0.05413890858541761
0.8647553029226736        0.5012667069255619       -0.05413890858541726
0.8546168376492188        0.4954132612707631       -0.16178199655276473
0.8344587713379529        0.4837749962596114       -0.26752833852922087
0.8045174388856803        0.4664883599083957       -0.37013815533991423
0.7651438750397821        0.44375602222301147      -0.46840844069979004
0.7167996988367586        0.4158444990784452       -0.5611870653623824
0.660051701541089         0.3830810275638182       -0.6473862847818276
0.5955652015358761        0.3458497294267117       -0.7259954919231306
0.5240962440731115        0.3045871075968827       -0.7960930657056434
0.446482737334355         0.25977692858851076      -0.8568571761675893
0.3636346287234132        0.2119445507801322       -0.9075754196709571
0.276523236565001         0.16165076506798987      -0.9476531711828026
0.1861698622854708        0.10948522010551211      -0.9766205557100865
0.09363381658737148       0.05605950921197096      -0.9941379571543596
0.08747012332010694       0.06555076452193115      0.9941379571543596
0.17391473941898203       0.12835645443486077      0.9766205557100865
0.25832036420993226       0.18968073044834968      0.9476531711828023
0.3396974189150823        0.24880462149545995      0.907575419670957
0.4170918319717651        0.3050349540111533       0.8568571761675893
0.48959622464927754       0.3577124787585666       0.7960930657056438
0.5563605492348743        0.40621959992355655      0.725995491923131
0.6166020550659934        0.44998761586094754      0.6473862847818277
0.6696144655660989        0.4885033866013521       0.5611870653623825
0.7147762586917865        0.5213153499481442       0.46840844069979015
0.7515579537104782        0.5480388156313467       0.37013815533991457
0.7795283188779049        0.5683604754493219       0.2675283385292208
0.7983594272360269        0.5820420765209748       0.16178199655276462
0.8078305012567917        0.5889232145829472       0.05413890858541761
0.8078305012567917        0.5889232145829472       -0.05413890858541726
0.7983594272360269        0.5820420765209748       -0.16178199655276473
0.7795283188779049        0.5683604754493219       -0.26752833852922087
0.7515579537104784        0.5480388156313468       -0.37013815533991423
0.7147762586917865        0.5213153499481443       -0.46840844069979004
0.6696144655660989        0.4885033866013521       -0.5611870653623824
0.6166020550659934        0.44998761586094754      -0.6473862847818276
0.5563605492348745        0.4062195999235567       -0.7259954919231306
0.48959622464927777       0.3577124787585668       -0.7960930657056434
0.41709183197176497       0.30503495401115327      -0.8568571761675893
0.3396974189150822        0.24880462149545987      -0.9075754196709571
0.2583203642099321        0.18968073044834954      -0.9476531711828026
0.17391473941898217       0.12835645443486088      -0.9766205557100865
0.08747012332010708       0.06555076452193125      -0.9941379571543596
0.08034808907744738       0.07434574435693672      0.9941379571543596
0.15975417027342007       0.1458433010076332       0.9766205557100865
0.2372872798875678        0.21565442647119956      0.9476531711828023
0.3120384130988627        0.28296064913049607      0.907575419670957
0.38313118121601525       0.3469728650635088       0.8568571761675893
0.4497320865335896        0.40694058956535023      0.7960930657056438
0.5110602943305257        0.46216075589524974      0.725995491923131
0.5663967874433196        0.5119859580912689       0.6473862847818277
0.6150927960848617        0.555832041213276        0.5611870653623825
0.6565774040770155        0.5931849500255219       0.46840844069979015
0.6903642423208115        0.6236067558242727       0.37013815533991457
0.7160571910294424        0.646740790751461        0.2675283385292208
0.7333550238705864        0.662315829399215        0.16178199655276462
0.7420549395697401        0.6701492686797832       0.05413890858541761
0.7420549395697401        0.6701492686797832       -0.05413890858541726
0.7333550238705864        0.662315829399215        -0.16178199655276473
0.7160571910294424        0.646740790751461        -0.26752833852922087
0.6903642423208117        0.6236067558242728       -0.37013815533991423
0.6565774040770156        0.593184950025522        -0.46840844069979004
0.6150927960848617        0.555832041213276        -0.5611870653623824
0.5663967874433196        0.5119859580912689       -0.6473862847818276
0.5110602943305259        0.46216075589524996      -0.7259954919231306
0.44973208653358987       0.40694058956535045      -0.7960930657056434
0.3831311812160152        0.34697286506350866      -0.8568571761675893
0.3120384130988626        0.28296064913049596      -0.9075754196709571
0.23728727988756765       0.2156544264711994       -0.9476531711828026
0.15975417027342023       0.14584330100763332      -0.9766205557100865
0.0803480890774475        0.07434574435693683      -0.9941379571543596
0.07234574435693672       0.08234808907744738      0.9941379571543596
0.1438433010076332        0.16175417027342007      0.9766205557100865
0.21365442647119956       0.2392872798875678       0.9476531711828023
0.28096064913049607       0.3140384130988627       0.907575419670957
0.34497286506350877       0.38513118121601525      0.8568571761675893
0.40494058956535023       0.4517320865335896       0.7960930657056438
0.46016075589524974       0.5130602943305257       0.725995491923131
0.5099859580912689        0.5683967874433196       0.6473862847818277
0.553832041213276         0.6170927960848617       0.5611870653623825
0.5911849500255218        0.6585774040770155       0.46840844069979015
0.6216067558242727        0.6923642423208115       0.37013815533991457
0.644740790751461         0.7180571910294424       0.2675283385292208
0.660315829399215         0.7353550238705864       0.16178199655276462
0.6681492686797832        0.7440549395697401       0.05413890858541761
0.6681492686797832        0.7440549395697401       -0.05413890858541726
0.660315829399215         0.7353550238705864       -0.16178199655276473
0.644740790751461         0.7180571910294424       -0.26752833852922087
0.6216067558242728        0.6923642423208117       -0.37013815533991423
0.591184950025522         0.6585774040770156       -0.46840844069979004
0.553832041213276         0.6170927960848617       -0.5611870653623824
0.5099859580912689        0.5683967874433196       -0.6473862847818276
0.46016075589524996       0.5130602943305259       -0.7259954919231306
0.40494058956535045       0.45173208653358987      -0.7960930657056434
0.34497286506350866       0.3851311812160152       -0.8568571761675893
0.28096064913049595       0.3140384130988626       -0.9075754196709571
0.2136544264711994        0.23928727988756765      -0.9476531711828026
0.14384330100763332       0.16175417027342023      -0.9766205557100865
0.07234574435693683       0.0823480890774475       -0.9941379571543596
0.06355076452193116       0.08947012332010694      0.9941379571543596
0.1263564544348608        0.17591473941898203      0.9766205557100865
0.1876807304483497        0.26032036420993226      0.9476531711828023
0.24680462149546          0.3416974189150823       0.907575419670957
0.3030349540111534        0.4190918319717651       0.8568571761675893
0.35571247875856665       0.49159622464927755      0.7960930657056438
0.4042195999235566        0.5583605492348743       0.725995491923131
0.4479876158609476        0.6186020550659934       0.6473862847818277
0.4865033866013522        0.6716144655660989       0.5611870653623825
0.5193153499481443        0.7167762586917865       0.46840844069979015
0.5460388156313468        0.7535579537104782       0.37013815533991457
0.566360475449322         0.7815283188779049       0.2675283385292208
0.580042076520975         0.8003594272360269       0.16178199655276462
0.5869232145829473        0.8098305012567917       0.05413890858541761
0.5869232145829473        0.8098305012567917       -0.05413890858541726
0.580042076520975         0.8003594272360269       -0.16178199655276473
0.566360475449322         0.7815283188779049       -0.26752833852922087
0.5460388156313469        0.7535579537104784       -0.37013815533991423
0.5193153499481444        0.7167762586917865       -0.46840844069979004
0.4865033866013522        0.6716144655660989       -0.5611870653623824
0.4479876158609476        0.6186020550659934       -0.6473862847818276
0.4042195999235568        0.5583605492348745       -0.7259954919231306
0.3557124787585669        0.49159622464927777      -0.7960930657056434
0.3030349540111533        0.41909183197176497      -0.8568571761675893
0.2468046214954599        0.3416974189150822       -0.9075754196709571
0.1876807304483496        0.2603203642099321       -0.9476531711828026
0.1263564544348609        0.17591473941898217      -0.9766205557100865
0.06355076452193126       0.08947012332010708      -0.9941379571543596
0.0540595092119709        0.09563381658737133      0.9941379571543596
0.10748522010551205       0.1881698622854706       0.9766205557100865
0.15965076506799003       0.27852323656500116      0.9476531711828023
0.20994455078013236       0.3656346287234133       0.907575419670957
0.2577769285885109        0.44848273733435506      0.8568571761675893
0.3025871075968826        0.5260962440731112       0.7960930657056438
0.34384972942671166       0.5975652015358758       0.725995491923131
0.38108102756381834       0.6620517015410889       0.6473862847818277
0.41384449907844534       0.7187996988367585       0.5611870653623825
0.4417560222230116        0.7671438750397819       0.46840844069979015
0.46448835990839576       0.80651743888568         0.37013815533991457
0.48177499625961157       0.8364587713379528       0.2675283385292208
0.49341326127076324       0.8566168376492187       0.16178199655276462
0.499266706925562         0.8667553029226734       0.05413890858541761
0.499266706925562         0.8667553029226734       -0.05413890858541726
0.49341326127076324       0.8566168376492187       -0.16178199655276473
0.48177499625961157       0.8364587713379528       -0.26752833852922087
0.4644883599083959        0.8065174388856802       -0.37013815533991423
0.44175602222301164       0.767143875039782        -0.46840844069979004
0.41384449907844534       0.7187996988367585       -0.5611870653623824
0.38108102756381834       0.6620517015410889       -0.6473862847818276
0.3438497294267118        0.597565201535876        -0.7259954919231306
0.3025871075968828        0.5260962440731115       -0.7960930657056434
0.25777692858851087       0.44848273733435495      -0.8568571761675893
0.20994455078013227       0.3656346287234132       -0.9075754196709571
0.15965076506798992       0.278523236565001        -0.9476531711828026
0.10748522010551215       0.18816986228547078      -0.9766205557100865
0.05405950921197098       0.09563381658737147      -0.9941379571543596
0.043975966606404696      0.10077163816596867      0.9941379571543596
0.08743635521195899       0.1983852691822113       0.9766205557100865
0.12987163249647504       0.2936964624740565       0.9476531711828023
0.17078428363273587       0.3855877814440124       0.907575419670957
0.2096946451929625        0.47298188439419037      0.8568571761675893
0.24614652876394408       0.5548541553726899       0.7960930657056438
0.2797125693390859        0.6302447168588194       0.725995491923131
0.309999235782368         0.6982696834494018       0.6473862847818277
0.33665144462110597       0.7581315246069822       0.5611870653623825
0.35935672307501276       0.8091284149761918       0.46840844069979015
0.37784887251385013       0.8506624626443527       0.37013815533991457
0.39191108939298136       0.8822467188774981       0.2675283385292208
0.4013785070767061        0.9035108871490549       0.16178199655276462
0.40614012874882505       0.9142056645280534       0.05413890858541761
0.40614012874882505       0.9142056645280534       -0.05413890858541726
0.4013785070767061        0.9035108871490549       -0.16178199655276473
0.39191108939298136       0.8822467188774981       -0.26752833852922087
0.3778488725138502        0.850662462644353        -0.37013815533991423
0.3593567230750128        0.8091284149761919       -0.46840844069979004
0.33665144462110597       0.7581315246069822       -0.5611870653623824
0.309999235782368         0.6982696834494018       -0.6473862847818276
0.27971256933908606       0.6302447168588197       -0.7259954919231306
0.24614652876394422       0.5548541553726902       -0.7960930657056434
0.20969464519296244       0.47298188439419026      -0.8568571761675893
0.1707842836327358        0.38558778144401223      -0.9075754196709571
0.12987163249647493       0.29369646247405634      -0.9476531711828026
0.08743635521195907       0.19838526918221147      -0.9766205557100865
0.04397596660640476       0.10077163816596882      -0.9941379571543596
0.03341061410813606       0.10482729700752558      0.9941379571543596
0.06642951931347          0.20644903797353212      0.9766205557100865
0.09866959914194226       0.3056738008988371       0.9476531711828023
0.12975286813495004       0.4013382661602072       0.907575419670957
0.1593149033832542        0.4923208553693074       0.8568571761675893
0.18700911705239498       0.5775548808538359       0.7960930657056438
0.21251081980816272       0.656041051595199        0.725995491923131
0.23552102750217527       0.7268591890020447       0.6473862847818277
0.25576996648765377       0.789179015162918        0.5611870653623825
0.27302023646877505       0.8422698870956434       0.46840844069979015
0.2870695938020826        0.8855093628682564       0.37013815533991457
0.2977533226182934        0.9183904991615534       0.2675283385292208
0.3049461659652638        0.9405277947160048       0.16178199655276462
0.3085637943312299        0.9516617099815566       0.05413890858541761
0.3085637943312299        0.9516617099815566       -0.05413890858541726
0.3049461659652638        0.9405277947160048       -0.16178199655276473
0.2977533226182934        0.9183904991615534       -0.26752833852922087
0.28706959380208263       0.8855093628682567       -0.37013815533991423
0.2730202364687751        0.8422698870956435       -0.46840844069979004
0.25576996648765377       0.789179015162918        -0.5611870653623824
0.23552102750217527       0.7268591890020447       -0.6473862847818276
0.21251081980816283       0.6560410515951993       -0.7259954919231306
0.1870091170523951        0.5775548808538361       -0.7960930657056434
0.15931490338325419       0.4923208553693073       -0.8568571761675893
0.12975286813495          0.401338266160207        -0.9075754196709571
0.09866959914194219       0.3056738008988369       -0.9476531711828026
0.06642951931347006       0.2064490379735323       -0.9766205557100865
0.03341061410813611       0.10482729700752574      -0.9941379571543596
0.022479207930078196      0.10775635846507277      0.9941379571543596
0.04469486770011203       0.21227282032110317      0.9766205557100865
0.06638652101126931       0.31432402561314177      0.9476531711828023
0.08729985306134444       0.41271351726544603      0.907575419670957
0.10718967415329214       0.5062877684467629       0.8568571761675893
0.12582279432024618       0.5939497066177452       0.7960930657056438
0.14298075726467327       0.6746715757034124       0.725995491923131
0.15846240155872512       0.7475069855934441       0.6473862847818277
0.1720862190780563        0.8116020077009296       0.5611870653623825
0.18369248301862787       0.8662051864942968       0.46840844069979015
0.19314512054744487       0.9106763496263551       0.37013815533991457
0.2003333081321109        0.9444941133697542       0.2675283385292208
0.20517277084541832       0.9672619953644787       0.16178199655276462
0.20760677041181647       0.9787130630110129       0.05413890858541761
0.20760677041181647       0.9787130630110129       -0.05413890858541726
0.20517277084541832       0.9672619953644787       -0.16178199655276473
0.2003333081321109        0.9444941133697542       -0.26752833852922087
0.1931451205474449        0.9106763496263554       -0.37013815533991423
0.1836924830186279        0.8662051864942969       -0.46840844069979004
0.1720862190780563        0.8116020077009296       -0.5611870653623824
0.15846240155872512       0.7475069855934441       -0.6473862847818276
0.14298075726467332       0.6746715757034127       -0.7259954919231306
0.12582279432024626       0.5939497066177455       -0.7960930657056434
0.10718967415329213       0.5062877684467628       -0.8568571761675893
0.0872998530613444        0.41271351726544586      -0.9075754196709571
0.06638652101126927       0.31432402561314154      -0.9476531711828026
0.044694867700112065      0.21227282032110337      -0.9766205557100865
0.02247920793007823       0.10775635846507292      -0.9941379571543596
0.011301514845861742      0.10952673112833584      0.9941379571543596
0.022470529763229316      0.21579280964681974      0.9766205557100865
0.033376098264124326      0.3195523629448247       0.9476531711828023
0.043890362528930124      0.4195889051281958       0.907575419670957
0.053890052422425366      0.5147295992041158       0.8568571761675893
0.06325793072341247       0.6038590075225106       0.7960930657056438
0.0718841676239452        0.6859321692626424       0.725995491923131
0.0796676283834084        0.7599868516433155       0.6473862847818277
0.0865170590408834        0.825154831222458        0.5611870653623825
0.0923521562844055        0.880672073023157        0.46840844069979015
0.09710450893387465       0.9258876881451967       0.37013815533991457
0.10071839999959334       0.9602715648423032       0.2675283385292208
0.10315145991302811       0.9834205835976809       0.16178199655276462
0.10437516327126178       0.9950633433317722       0.05413890858541761
0.10437516327126178       0.9950633433317722       -0.05413890858541726
0.10315145991302811       0.9834205835976809       -0.16178199655276473
0.10071839999959334       0.9602715648423032       -0.26752833852922087
0.09710450893387468       0.925887688145197        -0.37013815533991423
0.09235215628440552       0.8806720730231571       -0.46840844069979004
0.0865170590408834        0.825154831222458        -0.5611870653623824
0.0796676283834084        0.7599868516433155       -0.6473862847818276
0.07188416762394523       0.6859321692626428       -0.7259954919231306
0.06325793072341251       0.603859007522511        -0.7960930657056434
0.05389005242242535       0.5147295992041157       -0.8568571761675893
0.0438903625289301        0.41958890512819563      -0.9075754196709571
0.0333760982641243        0.3195523629448245       -0.9476531711828026