% Model:              loudspeaker_radiation_BEM_60.mph
% Version:            COMSOL 6.1.0.357
% Date:               Oct 31 2023, 11:14
% Dimension:          3
% Nodes:              1682
% Elements:           3360
% Expressions:        1
% Description:        Radiation pattern
% Coordinates
0                         0.002                    2
0.21623803684788354       0.002                    1.9882759143087192
0.21505346225667168       0.02460302969172349      1.9882759143087192
0.4299408804220481        0.002                    1.953241111420173
0.4275856192936395        0.04694105952645864      1.953241111420173
0.63860306027196          0.002                    1.8953063423656047
0.6351047258896494        0.06875219652824865      1.8953063423656047
0.8397782031205292        0.002                    1.815150839341914
0.8351778102563916        0.08978072505786026      1.815150839341914
1.0311077143540435        0.002                    1.7137143523351785
1.0254591984082315        0.10978010484485075      1.7137143523351785
1.2103484303875303        0.002                    1.5921861314112875
1.2037180150450213        0.12851586144682497      1.5921861314112875
1.3753989177068464        0.002                    1.451990983846262
1.3678643385252849        0.14576833524789043      1.451990983846262
1.524324110255273         0.002                    1.2947725695636554
1.515973703286631         0.16133525676681684      1.2947725695636554
1.655377996313781         0.002                    1.122374130724765
1.646309662444916         0.17503411808176683      1.122374130724765
1.7670240888920459        0.002                    0.9368168813995803
1.757344146046314         0.18670431256881104      0.9368168813995803
1.8579534396335826        0.002                    0.7402763106798291
1.8477753762903935        0.19620901786774933      0.7402763106798291
1.9270999850384458        0.002                    0.5350566770584416
1.9165431296846065        0.2034367999991867       0.5350566770584416
1.9736530450830525        0.002                    0.32356399310552925
1.9628411671953618        0.20830291982605625      0.32356399310552925
1.9970668277022476        0.002                    0.10827781717083522
1.9861266866635443        0.2107503265425236       0.10827781717083522
1.9970668277022476        0.002                    -0.10827781717083453
1.9861266866635443        0.2107503265425236       -0.10827781717083453
1.9736530450830525        0.002                    -0.32356399310552947
1.9628411671953618        0.20830291982605625      -0.32356399310552947
1.9270999850384458        0.002                    -0.5350566770584417
1.9165431296846065        0.2034367999991867       -0.5350566770584417
1.857953439633583         0.002                    -0.7402763106798285
1.847775376290394         0.19620901786774939      -0.7402763106798285
1.767024088892046         0.002                    -0.9368168813995801
1.7573441460463142        0.18670431256881106      -0.9368168813995801
1.655377996313781         0.002                    -1.1223741307247648
1.646309662444916         0.17503411808176683      -1.1223741307247648
1.524324110255273         0.002                    -1.2947725695636552
1.515973703286631         0.16133525676681684      -1.2947725695636552
1.375398917706847         0.002                    -1.4519909838462612
1.3678643385252856        0.14576833524789048      -1.4519909838462612
1.210348430387531         0.002                    -1.5921861314112868
1.203718015045022         0.12851586144682506      -1.5921861314112868
1.0311077143540432        0.002                    -1.7137143523351785
1.0254591984082313        0.10978010484485072      -1.7137143523351785
0.8397782031205289        0.002                    -1.8151508393419142
0.8351778102563913        0.08978072505786022      -1.8151508393419142
0.6386030602719596        0.002                    -1.8953063423656051
0.635104725889649         0.06875219652824861      -1.8953063423656051
0.4299408804220485        0.002                    -1.953241111420173
0.42758561929363986       0.04694105952645868      -1.953241111420173
0.21623803684788387       0.002                    -1.9882759143087192
0.21505346225667202       0.024603029691723524     -1.9882759143087192
2.4492935982947064E-16    0.002                    -2
0.21151271693014553       0.04695841586015641      1.9882759143087192
0.42054564064220634       0.09138973540022409      1.953241111420173
0.6246480512262835        0.13477304202253867      1.8953063423656047
0.821427034530892         0.17659970612268894      1.815150839341914
1.0085755368935259        0.21637934830658437      1.7137143523351785
1.1838994132354903        0.25364558864049247      1.5921861314112875
1.3453431514068248        0.28796151452934665      1.451990983846262
1.4910139711868882        0.31892480311745036      1.2947725695636554
1.6192040154018592        0.34617243815611276      1.122374130724765
1.7284103729885936        0.3693849660372559       0.9368168813995803
1.8173526992527103        0.38829024109488985      0.7402763106798291
1.8849882267395084        0.40266661626422195      0.5350566770584416
1.9305239907289573        0.4123455416908368       0.32356399310552925
1.9534261260220258        0.4172135408236331       0.10827781717083522
1.9534261260220258        0.4172135408236331       -0.10827781717083453
1.9305239907289573        0.4123455416908368       -0.32356399310552947
1.8849882267395084        0.40266661626422195      -0.5350566770584417
1.8173526992527107        0.38829024109488997      -0.7402763106798285
1.7284103729885938        0.36938496603725596      -0.9368168813995801
1.6192040154018592        0.34617243815611276      -1.1223741307247648
1.4910139711868882        0.31892480311745036      -1.2947725695636552
1.3453431514068255        0.28796151452934676      -1.4519909838462612
1.183899413235491         0.25364558864049264      -1.5921861314112868
1.0085755368935256        0.21637934830658434      -1.7137143523351785
0.8214270345308917        0.17659970612268888      -1.8151508393419142
0.6246480512262831        0.13477304202253856      -1.8953063423656051
0.42054564064220673       0.09138973540022417      -1.953241111420173
0.21151271693014584       0.04695841586015648      -1.9882759143087192
0.20565459401505115       0.06882122821627211      1.9882759143087192
0.40889807594706423       0.13485903862694         1.953241111420173
0.6073476017976742        0.1993391982838845       1.8953063423656047
0.7986765323204144        0.26150573626990004      1.815150839341914
0.9806417107386148        0.3206298067665084       1.7137143523351785
1.1511097617076718        0.3760182341047899       1.5921861314112875
1.308082103190398         0.4270216396163254       1.451990983846262
1.4497183780040894        0.4730420550043504       1.2947725695636554
1.574358030325836         0.5135399329753074       1.122374130724765
1.6805397741912869        0.54804047293755         0.9368168813995803
1.7670187257365129        0.576139187604165        0.7402763106798291
1.8327809983231067        0.5975066452365867       0.5350566770584416
1.8770555894320096        0.6118923319305275       0.32356399310552925
1.8993234199631133        0.6191275886624596       0.10827781717083522
1.8993234199631133        0.6191275886624596       -0.10827781717083453
1.8770555894320096        0.6118923319305275       -0.32356399310552947
1.8327809983231067        0.5975066452365867       -0.5350566770584417
1.7670187257365133        0.5761391876041652       -0.7402763106798285
1.680539774191287         0.5480404729375501       -0.9368168813995801
1.574358030325836         0.5135399329753074       -1.1223741307247648
1.4497183780040894        0.4730420550043504       -1.2947725695636552
1.3080821031903986        0.42702163961632555      -1.4519909838462612
1.1511097617076722        0.37601823410479013      -1.5921861314112868
0.9806417107386146        0.3206298067665083       -1.7137143523351785
0.798676532320414         0.2615057362698999       -1.8151508393419142
0.6073476017976738        0.19933919828388436      -1.8953063423656051
0.4088980759470646        0.1348590386269401       -1.953241111420173
0.20565459401505148       0.0688212282162722       -1.9882759143087192
0.19754327633193738       0.08995193321280934      1.9882759143087192
0.3927705383644227        0.17687271042391786      1.953241111420173
0.5833929249481132        0.2617432649929499       1.8953063423656047
0.767175562888025         0.3435685672654715       1.815150839341914
0.941963768788381         0.4213892903859247       1.7137143523351785
1.10570831074538          0.49429305752788794      1.5921861314112875
1.256489433717639         0.5614251386781715       1.451990983846262
1.3925393668988038        0.6219984715647356       1.2947725695636554
1.5122630492139648        0.6753028892422116       1.122374130724765
1.614256829952384         0.7207134461500251       0.9368168813995803
1.697324925288706         0.7576977450276998       0.7402763106798291
1.7604934377549966        0.7858221787859623       0.5350566770584416
1.8030217742981103        0.8047570141534117       0.32356399310552925
1.8244113290561073        0.8142802574976497       0.10827781717083522
1.8244113290561073        0.8142802574976497       -0.10827781717083453
1.8030217742981103        0.8047570141534117       -0.32356399310552947
1.7604934377549966        0.7858221787859623       -0.5350566770584417
1.6973249252887062        0.7576977450276999       -0.7402763106798285
1.6142568299523843        0.7207134461500252       -0.9368168813995801
1.5122630492139648        0.6753028892422116       -1.1223741307247648
1.3925393668988038        0.6219984715647356       -1.2947725695636552
1.2564894337176398        0.5614251386781718       -1.4519909838462612
1.1057083107453807        0.49429305752788816      -1.5921861314112868
0.9419637687883807        0.42138929038592465      -1.7137143523351785
0.7671755628880247        0.3435685672654714       -1.8151508393419142
0.5833929249481128        0.26174326499294975      -1.8953063423656051
0.39277053836442305       0.17687271042391803      -1.953241111420173
0.1975432763319377        0.08995193321280948      -1.9882759143087192
0.18726763317474268       0.11011901842394176      1.9882759143087192
0.3723397245709413        0.21697044021102402      1.953241111420173
0.5530464731300024        0.32130153013597995      1.8953063423656047
0.7272692574468267        0.42188910156026455      1.815150839341914
0.8929654746687102        0.5175538571770216       1.7137143523351785
1.0481924881462226        0.607174215193765        1.5921861314112875
1.1911304030717516        0.6896994588534231       1.451990983846262
1.320103403082178         0.7641620551276364       1.2947725695636554
1.4335993976735173        0.8296889981568903       1.122374130724765
1.530287750079564         0.8855120444460228       0.9368168813995803
1.6090348777713601        0.9309767198167912       0.7402763106798291
1.6689175426759058        0.9655499925192228       0.5350566770584416
1.7092336752984376        0.9888265225415261       0.32356399310552925
1.729510605845347         1.0005334138511237       0.10827781717083522
1.729510605845347         1.0005334138511237       -0.10827781717083453
1.7092336752984376        0.9888265225415261       -0.32356399310552947
1.6689175426759058        0.9655499925192228       -0.5350566770584417
1.6090348777713606        0.9309767198167914       -0.7402763106798285
1.5302877500795642        0.8855120444460229       -0.9368168813995801
1.4335993976735173        0.8296889981568903       -1.1223741307247648
1.320103403082178         0.7641620551276364       -1.2947725695636552
1.1911304030717522        0.6896994588534234       -1.4519909838462612
1.048192488146223         0.6071742151937654       -1.5921861314112868
0.89296547466871          0.5175538571770215       -1.7137143523351785
0.7272692574468264        0.4218891015602644       -1.8151508393419142
0.553046473130002         0.32130153013597973      -1.8953063423656051
0.3723397245709416        0.2169704402110242       -1.953241111420173
0.18726763317474296       0.11011901842394192      -1.9882759143087192
0.17494024664021388       0.1291015290438623       1.9882759143087192
0.34782947883796406       0.25471290886972153      1.953241111420173
0.5166407284198645        0.37736146089669936      1.8953063423656047
0.6793948378301646        0.4956092429909199       1.815150839341914
0.8341836639435302        0.6080699080223066       1.7137143523351785
0.9791924492985551        0.7134249575171332       1.5921861314112875
1.1127210984697486        0.8104391998471131       1.451990983846262
1.2332041101319868        0.8979752317218951       1.2947725695636554
1.3392289311321979        0.9750067732027042       1.122374130724765
1.429552517383573         1.0406306998962884       0.9368168813995803
1.5031159074209564        1.0940776312626934       0.7402763106798291
1.5590566377558097        1.1347209508986438       0.5350566770584416
1.5967188544720539        1.1620841530419497       0.32356399310552925
1.6156610025135834        1.1758464291658943       0.10827781717083522
1.6156610025135834        1.1758464291658943       -0.10827781717083453
1.5967188544720539        1.1620841530419497       -0.32356399310552947
1.5590566377558097        1.1347209508986438       -0.5350566770584417
1.5031159074209568        1.0940776312626936       -0.7402763106798285
1.429552517383573         1.0406306998962886       -0.9368168813995801
1.3392289311321979        0.9750067732027042       -1.1223741307247648
1.2332041101319868        0.8979752317218951       -1.2947725695636552
1.112721098469749         0.8104391998471134       -1.4519909838462612
0.9791924492985555        0.7134249575171336       -1.5921861314112868
0.8341836639435299        0.6080699080223065       -1.7137143523351785
0.6793948378301644        0.49560924299091974      -1.8151508393419142
0.5166407284198642        0.3773614608966991       -1.8953063423656051
0.34782947883796433       0.25471290886972175      -1.953241111420173
0.17494024664021415       0.1291015290438625       -1.9882759143087192
0.16069617815489476       0.14669148871387344      1.9882759143087192
0.31950834054684013       0.2896866020152664       1.953241111420173
0.4745745597751356        0.4293088529423991       1.8953063423656047
0.6240768261977254        0.5639212982609921       1.815150839341914
0.7662623624320305        0.6919457301270175       1.7137143523351785
0.8994641730671792        0.8118811791307005       1.5921861314112875
1.0221205886610514        0.9223215117904995       1.451990983846262
1.1327935748866391        1.0219719161825378       1.2947725695636554
1.2301855921697233        1.109664082426552        1.122374130724765
1.313154808154031         1.1843699000510437       0.9368168813995803
1.380728484641623         1.2452135116485454       0.7402763106798291
1.4321143820588849        1.291481581502922        0.5350566770584416
1.4667100477411728        1.32263165879843         0.32356399310552925
1.4841098791394802        1.3382985373595664       0.10827781717083522
1.4841098791394802        1.3382985373595664       -0.10827781717083453
1.4667100477411728        1.32263165879843         -0.32356399310552947
1.4321143820588849        1.291481581502922        -0.5350566770584417
1.3807284846416235        1.2452135116485457       -0.7402763106798285
1.3131548081540312        1.184369900051044        -0.9368168813995801
1.2301855921697233        1.109664082426552        -1.1223741307247648
1.1327935748866391        1.0219719161825378       -1.2947725695636552
1.0221205886610518        0.9223215117904999       -1.4519909838462612
0.8994641730671797        0.8118811791307009       -1.5921861314112868
0.7662623624320304        0.6919457301270173       -1.7137143523351785
0.6240768261977252        0.5639212982609919       -1.8151508393419142
0.4745745597751353        0.4293088529423988       -1.8953063423656051
0.31950834054684046       0.28968660201526664      -1.953241111420173
0.160696178154895         0.14669148871387366      -1.9882759143087192
0.14469148871387344       0.16269617815489476      1.9882759143087192
0.2876866020152664        0.32150834054684013      1.953241111420173
0.4273088529423991        0.4765745597751356       1.8953063423656047
0.5619212982609921        0.6260768261977254       1.815150839341914
0.6899457301270175        0.7682623624320305       1.7137143523351785
0.8098811791307005        0.9014641730671792       1.5921861314112875
0.9203215117904995        1.0241205886610514       1.451990983846262
1.0199719161825378        1.1347935748866391       1.2947725695636554
1.107664082426552         1.2321855921697233       1.122374130724765
1.1823699000510437        1.315154808154031        0.9368168813995803
1.2432135116485454        1.382728484641623        0.7402763106798291
1.289481581502922         1.4341143820588849       0.5350566770584416
1.32063165879843          1.4687100477411728       0.32356399310552925
1.3362985373595664        1.4861098791394802       0.10827781717083522
1.3362985373595664        1.4861098791394802       -0.10827781717083453
1.32063165879843          1.4687100477411728       -0.32356399310552947
1.289481581502922         1.4341143820588849       -0.5350566770584417
1.2432135116485457        1.3827284846416235       -0.7402763106798285
1.182369900051044         1.3151548081540312       -0.9368168813995801
1.107664082426552         1.2321855921697233       -1.1223741307247648
1.0199719161825378        1.1347935748866391       -1.2947725695636552
0.9203215117904999        1.0241205886610518       -1.4519909838462612
0.8098811791307009        0.9014641730671797       -1.5921861314112868
0.6899457301270173        0.7682623624320304       -1.7137143523351785
0.5619212982609919        0.6260768261977252       -1.8151508393419142
0.4273088529423988        0.4765745597751353       -1.8953063423656051
0.28768660201526663       0.32150834054684047      -1.953241111420173
0.14469148871387366       0.162696178154895        -1.9882759143087192
0.12710152904386232       0.17694024664021388      1.9882759143087192
0.2527129088697216        0.34982947883796406      1.953241111420173
0.3753614608966994        0.5186407284198645       1.8953063423656047
0.49360924299092          0.6813948378301646       1.815150839341914
0.6060699080223068        0.8361836639435302       1.7137143523351785
0.7114249575171333        0.9811924492985551       1.5921861314112875
0.8084391998471132        1.1147210984697487       1.451990983846262
0.8959752317218952        1.2352041101319868       1.2947725695636554
0.9730067732027043        1.3412289311321979       1.122374130724765
1.0386306998962886        1.431552517383573        0.9368168813995803
1.0920776312626936        1.5051159074209564       0.7402763106798291
1.132720950898644         1.5610566377558097       0.5350566770584416
1.16008415304195          1.5987188544720539       0.32356399310552925
1.1738464291658945        1.6176610025135834       0.10827781717083522
1.1738464291658945        1.6176610025135834       -0.10827781717083453
1.16008415304195          1.5987188544720539       -0.32356399310552947
1.132720950898644         1.5610566377558097       -0.5350566770584417
1.0920776312626939        1.5051159074209568       -0.7402763106798285
1.0386306998962889        1.431552517383573        -0.9368168813995801
0.9730067732027043        1.3412289311321979       -1.1223741307247648
0.8959752317218952        1.2352041101319868       -1.2947725695636552
0.8084391998471137        1.114721098469749        -1.4519909838462612
0.7114249575171337        0.9811924492985555       -1.5921861314112868
0.6060699080223066        0.8361836639435299       -1.7137143523351785
0.4936092429909198        0.6813948378301644       -1.8151508393419142
0.3753614608966992        0.5186407284198642       -1.8953063423656051
0.2527129088697218        0.34982947883796434      -1.953241111420173
0.12710152904386252       0.17694024664021415      -1.9882759143087192
0.1081190184239418        0.18926763317474266      1.9882759143087192
0.2149704402110241        0.3743397245709412       1.953241111420173
0.31930153013598006       0.5550464731300023       1.8953063423656047
0.4198891015602647        0.7292692574468266       1.815150839341914
0.5155538571770218        0.8949654746687101       1.7137143523351785
0.6051742151937652        1.0501924881462223       1.5921861314112875
0.6876994588534233        1.1931304030717516       1.451990983846262
0.7621620551276367        1.3221034030821779       1.2947725695636554
0.8276889981568907        1.435599397673517        1.122374130724765
0.8835120444460232        1.5322877500795637       0.9368168813995803
0.9289767198167915        1.61103487777136         0.7402763106798291
0.9635499925192231        1.6709175426759055       0.5350566770584416
0.9868265225415265        1.7112336752984374       0.32356399310552925
0.998533413851124         1.7315106058453469       0.10827781717083522
0.998533413851124         1.7315106058453469       -0.10827781717083453
0.9868265225415265        1.7112336752984374       -0.32356399310552947
0.9635499925192231        1.6709175426759055       -0.5350566770584417
0.9289767198167918        1.6110348777713603       -0.7402763106798285
0.8835120444460233        1.532287750079564        -0.9368168813995801
0.8276889981568907        1.435599397673517        -1.1223741307247648
0.7621620551276367        1.3221034030821779       -1.2947725695636552
0.6876994588534237        1.193130403071752        -1.4519909838462612
0.6051742151937656        1.050192488146223        -1.5921861314112868
0.5155538571770217        0.8949654746687099       -1.7137143523351785
0.41988910156026454       0.7292692574468264       -1.8151508393419142
0.31930153013597984       0.555046473130002        -1.8953063423656051
0.2149704402110243        0.37433972457094156      -1.953241111420173
0.10811901842394196       0.18926763317474293      -1.9882759143087192
0.08795193321280939       0.19954327633193733      1.9882759143087192
0.17487271042391797       0.3947705383644226       1.953241111420173
0.2597432649929501        0.585392924948113        1.8953063423656047
0.34156856726547175       0.7691755628880248       1.815150839341914
0.419389290385925         0.9439637687883807       1.7137143523351785
0.49229305752788816       1.1077083107453798       1.5921861314112875
0.5594251386781718        1.2584894337176389       1.451990983846262
0.619998471564736         1.3945393668988035       1.2947725695636554
0.6733028892422119        1.5142630492139644       1.122374130724765
0.7187134461500255        1.6162568299523836       0.9368168813995803
0.7556977450277003        1.6993249252887055       0.7402763106798291
0.7838221787859627        1.7624934377549961       0.5350566770584416
0.8027570141534122        1.8050217742981098       0.32356399310552925
0.8122802574976501        1.8264113290561068       0.10827781717083522
0.8122802574976501        1.8264113290561068       -0.10827781717083453
0.8027570141534122        1.8050217742981098       -0.32356399310552947
0.7838221787859627        1.7624934377549961       -0.5350566770584417
0.7556977450277004        1.699324925288706        -0.7402763106798285
0.7187134461500256        1.6162568299523838       -0.9368168813995801
0.6733028892422119        1.5142630492139644       -1.1223741307247648
0.619998471564736         1.3945393668988035       -1.2947725695636552
0.5594251386781721        1.2584894337176393       -1.4519909838462612
0.49229305752788843       1.1077083107453805       -1.5921861314112868
0.4193892903859249        0.9439637687883805       -1.7137143523351785
0.3415685672654716        0.7691755628880245       -1.8151508393419142
0.25974326499294986       0.5853929249481127       -1.8953063423656051
0.17487271042391814       0.39477053836442294      -1.953241111420173
0.08795193321280952       0.19954327633193764      -1.9882759143087192
0.06682122821627212       0.20765459401505115      1.9882759143087192
0.13285903862694          0.41089807594706423      1.953241111420173
0.19733919828388452       0.6093476017976742       1.8953063423656047
0.2595057362699001        0.8006765323204144       1.815150839341914
0.3186298067665084        0.9826417107386148       1.7137143523351785
0.37401823410478996       1.1531097617076718       1.5921861314112875
0.42502163961632544       1.310082103190398        1.451990983846262
0.47104205500435053       1.4517183780040894       1.2947725695636554
0.5115399329753075        1.576358030325836        1.122374130724765
0.5460404729375501        1.6825397741912869       0.9368168813995803
0.5741391876041652        1.7690187257365129       0.7402763106798291
0.5955066452365868        1.8347809983231067       0.5350566770584416
0.6098923319305276        1.8790555894320096       0.32356399310552925
0.6171275886624598        1.9013234199631133       0.10827781717083522
0.6171275886624598        1.9013234199631133       -0.10827781717083453
0.6098923319305276        1.8790555894320096       -0.32356399310552947
0.5955066452365868        1.8347809983231067       -0.5350566770584417
0.5741391876041653        1.7690187257365133       -0.7402763106798285
0.5460404729375502        1.682539774191287        -0.9368168813995801
0.5115399329753075        1.576358030325836        -1.1223741307247648
0.47104205500435053       1.4517183780040894       -1.2947725695636552
0.42502163961632566       1.3100821031903986       -1.4519909838462612
0.3740182341047902        1.1531097617076722       -1.5921861314112868
0.31862980676650837       0.9826417107386146       -1.7137143523351785
0.2595057362699           0.800676532320414        -1.8151508393419142
0.19733919828388438       0.6093476017976738       -1.8953063423656051
0.13285903862694012       0.4108980759470646       -1.953241111420173
0.06682122821627222       0.20765459401505149      -1.9882759143087192
0.04495841586015639       0.21351271693014554      1.9882759143087192
0.08938973540022406       0.42254564064220634      1.953241111420173
0.13277304202253862       0.6266480512262835       1.8953063423656047
0.17459970612268888       0.823427034530892        1.815150839341914
0.21437934830658428       1.0105755368935259       1.7137143523351785
0.25164558864049236       1.1858994132354903       1.5921861314112875
0.28596151452934654       1.3473431514068248       1.451990983846262
0.31692480311745025       1.4930139711868882       1.2947725695636554
0.3441724381561126        1.6212040154018592       1.122374130724765
0.36738496603725573       1.7304103729885936       0.9368168813995803
0.38629024109488974       1.8193526992527103       0.7402763106798291
0.4006666162642218        1.8869882267395084       0.5350566770584416
0.41034554169083665       1.9325239907289573       0.32356399310552925
0.41521354082363293       1.9554261260220258       0.10827781717083522
0.41521354082363293       1.9554261260220258       -0.10827781717083453
0.41034554169083665       1.9325239907289573       -0.32356399310552947
0.4006666162642218        1.8869882267395084       -0.5350566770584417
0.3862902410948898        1.8193526992527107       -0.7402763106798285
0.3673849660372558        1.7304103729885938       -0.9368168813995801
0.3441724381561126        1.6212040154018592       -1.1223741307247648
0.31692480311745025       1.4930139711868882       -1.2947725695636552
0.28596151452934665       1.3473431514068255       -1.4519909838462612
0.2516455886404925        1.185899413235491        -1.5921861314112868
0.21437934830658426       1.0105755368935256       -1.7137143523351785
0.1745997061226888        0.8234270345308917       -1.8151508393419142
0.13277304202253853       0.6266480512262831       -1.8953063423656051
0.08938973540022413       0.42254564064220673      -1.953241111420173
0.04495841586015646       0.21351271693014584      -1.9882759143087192
0.022603029691723484      0.2170534622566717       1.9882759143087192
0.04494105952645863       0.4295856192936395       1.953241111420173
0.06675219652824865       0.6371047258896494       1.8953063423656047
0.08778072505786025       0.8371778102563916       1.815150839341914
0.10778010484485073       1.0274591984082315       1.7137143523351785
0.12651586144682495       1.2057180150450213       1.5921861314112875
0.1437683352478904        1.3698643385252849       1.451990983846262
0.1593352567668168        1.517973703286631        1.2947725695636554
0.1730341180817668        1.648309662444916        1.122374130724765
0.184704312568811         1.759344146046314        0.9368168813995803
0.1942090178677493        1.8497753762903935       0.7402763106798291
0.20143679999918668       1.9185431296846065       0.5350566770584416
0.20630291982605622       1.9648411671953618       0.32356399310552925
0.20875032654252357       1.9881266866635443       0.10827781717083522
0.20875032654252357       1.9881266866635443       -0.10827781717083453
0.20630291982605622       1.9648411671953618       -0.32356399310552947
0.20143679999918668       1.9185431296846065       -0.5350566770584417
0.19420901786774936       1.849775376290394        -0.7402763106798285
0.18470431256881104       1.7593441460463142       -0.9368168813995801
0.1730341180817668        1.648309662444916        -1.1223741307247648
0.1593352567668168        1.517973703286631        -1.2947725695636552
0.14376833524789046       1.3698643385252856       -1.4519909838462612
0.12651586144682503       1.205718015045022        -1.5921861314112868
0.1077801048448507        1.0274591984082313       -1.7137143523351785
0.0877807250578602        0.8371778102563913       -1.8151508393419142
0.0667521965282486        0.637104725889649        -1.8953063423656051
0.044941059526458674      0.42958561929363986      -1.953241111420173
0.022603029691723522      0.21705346225667202      -1.9882759143087192