% Model:              loudspeaker_radiation_BEM_60.mph
% Version:            COMSOL 6.1.0.357
% Date:               Nov 6 2023, 10:30
% Dimension:          3
% Nodes:              1682
% Elements:           3304
% Expressions:        1
% Description:        Radiation pattern
% Coordinates
0                         0.002                    0.25
1.655095122997925E-18     -0.025029754605985444    0.2485344892885899
0.001438582325580942      -0.024991445217926317    0.2485344892885899
3.2907857689466007E-18    -0.05174261005275601     0.24415513892752164
0.0028602985887028107     -0.05166644041918614     0.24415513892752164
4.887894960548501E-18     -0.077825382533995       0.2369132927957006
0.004248480466068079      -0.07771224567422544     0.2369132927957006
6.427698052782949E-18     -0.10297227539006615     0.22689385491773925
0.005586852794391432      -0.10282349773033567     0.22689385491773925
7.892142262248892E-18     -0.12688846429425543     0.21421429404189732
0.006859724381808768      -0.12670579011659566     0.21421429404189732
9.26405831954445E-18      -0.14929355379844128     0.19902326642641094
0.00805217197275521       -0.1490791247905647      0.19902326642641094
1.0527361763252646E-17    -0.1699248647133558      0.18149887298078274
0.00915021520949214       -0.16968119485932545     0.18149887298078274
1.1667241515545357E-17    -0.1885405137819091      0.16184657119545692
0.010140980539019325      -0.188270459887974       0.16184657119545692
1.2670333528528943E-17    -0.2049222495392226      0.14029676634059562
0.011012852143713435      -0.20462897774037653     0.14029676634059562
1.352487746548695E-17     -0.21887801111150573     0.11710211017494754
0.011755608126169246      -0.21856495975144918     0.11710211017494754
1.4220854580075513E-17    -0.23024417995419783     0.09253453883497864
0.01236054035160073       -0.22991501927390187     0.09253453883497864
1.4750105176964032E-17    -0.23888749812980573     0.0668820846323052
0.012820556542759513      -0.23854608723729234     0.0668820846323052
1.510642427680242E-17     -0.24470663063538156     0.040445499138191156
0.013130263430401076      -0.24435697226121053     0.040445499138191156
1.5285634363930727E-17    -0.24763335346278095     0.013534727146354402
0.013286029984435522      -0.24727954703169375     0.013534727146354402
1.5285634363930727E-17    -0.24763335346278095     -0.013534727146354316
0.013286029984435522      -0.24727954703169375     -0.013534727146354316
1.510642427680242E-17     -0.24470663063538156     -0.040445499138191184
0.013130263430401076      -0.24435697226121053     -0.040445499138191184
1.4750105176964032E-17    -0.23888749812980573     -0.06688208463230522
0.012820556542759513      -0.23854608723729234     -0.06688208463230522
1.4220854580075517E-17    -0.23024417995419788     -0.09253453883497856
0.012360540351600731      -0.22991501927390193     -0.09253453883497856
1.3524877465486952E-17    -0.21887801111150576     -0.11710211017494751
0.011755608126169248      -0.2185649597514492      -0.11710211017494751
1.2670333528528943E-17    -0.2049222495392226      -0.1402967663405956
0.011012852143713435      -0.20462897774037653     -0.1402967663405956
1.1667241515545357E-17    -0.1885405137819091      -0.1618465711954569
0.010140980539019325      -0.188270459887974       -0.1618465711954569
1.052736176325265E-17     -0.16992486471335588     -0.18149887298078266
0.009150215209492144      -0.16968119485932553     -0.18149887298078266
9.264058319544456E-18     -0.14929355379844136     -0.19902326642641086
0.008052171972755215      -0.1490791247905648      -0.19902326642641086
7.892142262248891E-18     -0.1268884642942554      -0.21421429404189732
0.006859724381808767      -0.12670579011659563     -0.21421429404189732
6.427698052782947E-18     -0.1029722753900661      -0.22689385491773928
0.00558685279439143       -0.10282349773033563     -0.22689385491773928
4.887894960548497E-18     -0.07782538253399494     -0.23691329279570064
0.004248480466068076      -0.07771224567422538     -0.23691329279570064
3.2907857689466038E-18    -0.05174261005275606     -0.24415513892752164
0.0028602985887028133     -0.05166644041918619     -0.24415513892752164
1.6550951229979275E-18    -0.025029754605985485    -0.2485344892885899
0.0014385823255809442     -0.02499144521792636     -0.2485344892885899
1.874699728327322E-33     0.0019999999999999693    -0.25
0.002873086833263123      -0.024876625645871564    0.2485344892885899
0.0057124893502945775     -0.05143814742957845     0.24415513892752164
0.008484918152672652      -0.07737315579363768     0.2369132927957006
0.011157869047545286      -0.10237758647758491     0.22689385491773925
0.01370000412957241       -0.12615828539341986     0.21421429404189732
0.016081519189213526      -0.14843644558925473     0.19902326642641094
0.018274493139834327      -0.1689508760059095      0.18149887298078274
0.02025321536691899       -0.18746106370327148     0.16184657119545692
0.021994487161517924      -0.20374999365461505     0.14029676634059562
0.023477893703899456      -0.2176266930493715      0.11710211017494754
0.024686043408645678      -0.22892847027472443     0.09253453883497864
0.02560477182509027       -0.23752282232602015     0.0668820846323052
0.026223307702551813      -0.2433089882833482      0.040445499138191156
0.026534399273399806      -0.24621913064120082     0.013534727146354402
0.026534399273399806      -0.24621913064120082     -0.013534727146354316
0.026223307702551813      -0.2433089882833482      -0.040445499138191184
0.02560477182509027       -0.23752282232602015     -0.06688208463230522
0.024686043408645685      -0.2289284702747245      -0.09253453883497856
0.023477893703899456      -0.21762669304937152     -0.11710211017494751
0.021994487161517924      -0.20374999365461505     -0.1402967663405956
0.02025321536691899       -0.18746106370327148     -0.1618465711954569
0.018274493139834334      -0.16895087600590958     -0.18149887298078266
0.016081519189213536      -0.1484364455892548      -0.19902326642641086
0.013700004129572407      -0.12615828539341983     -0.21421429404189732
0.011157869047545283      -0.10237758647758487     -0.22689385491773928
0.008484918152672646      -0.07737315579363763     -0.23691329279570064
0.005712489350294583      -0.0514381474295785      -0.24415513892752164
0.0028730868332631273     -0.024876625645871606    -0.2485344892885899
0.0042994472641656595     -0.024685621358372933    0.2485344892885899
0.008548487440181097      -0.051058378205215214    0.24415513892752164
0.012697304416917018      -0.07680907407933919     0.2369132927957006
0.01669725710862072       -0.1016358056157065      0.22689385491773925
0.020501449727173608      -0.12524750208635033     0.21421429404189732
0.024065281592329627      -0.14736733793853235     0.19902326642641094
0.02734697003391237       -0.16773597832124454     0.18149887298078274
0.030308040255420644      -0.1861146195492251      0.16184657119545692
0.03291377641583957       -0.2022877888578278      0.14029676634059562
0.03513362864113554       -0.21606587062417912     0.11710211017494754
0.0369415711935972        -0.22728732943698876     0.09253453883497864
0.03831640759981458       -0.23582060395155427     0.0668820846323052
0.039242019159949695      -0.2415656493262396      0.040445499138191156
0.03970755392475466       -0.2444551101567716      0.013534727146354402
0.03970755392475466       -0.2444551101567716      -0.013534727146354316
0.039242019159949695      -0.2415656493262396      -0.040445499138191184
0.03831640759981458       -0.23582060395155427     -0.06688208463230522
0.03694157119359721       -0.22728732943698882     -0.09253453883497856
0.03513362864113555       -0.21606587062417915     -0.11710211017494751
0.03291377641583957       -0.2022877888578278      -0.1402967663405956
0.030308040255420644      -0.1861146195492251      -0.1618465711954569
0.027346970033912385      -0.16773597832124462     -0.18149887298078266
0.02406528159232964       -0.14736733793853243     -0.19902326642641086
0.020501449727173604      -0.1252475020863503      -0.21421429404189732
0.016697257108620717      -0.10163580561570645     -0.22689385491773928
0.012697304416917009      -0.07680907407933914     -0.23691329279570064
0.008548487440181106      -0.05105837820521526     -0.24415513892752164
0.004299447264165666      -0.024685621358372975    -0.2485344892885899
0.005713620444678123      -0.024418973777835265    0.2485344892885899
0.011360253913655385      -0.05052820924322348     0.24415513892752164
0.01687369879227425       -0.07602159948223464     0.2369132927957006
0.022189314980323623      -0.10060025780314527     0.22689385491773925
0.02724478173811286       -0.12397602190962434     0.21421429404189732
0.031980828340164226      -0.14587483234018828     0.19902326642641094
0.03634192897027736       -0.16603994556481208     0.18149887298078274
0.04027695371095653       -0.18423494406807592     0.16184657119545692
0.04373976799494469       -0.2002465081283747      0.14029676634059562
0.046689773490843384      -0.21388691679661412     0.11710211017494754
0.04909238408142893       -0.2249962487527036      0.09253453883497864
0.050919431354254543      -0.23344425723681714     0.0668820846323052
0.052149494850531594      -0.2391318970735663      0.040445499138191156
0.05276815320042399       -0.2419924858861238      0.013534727146354402
0.05276815320042399       -0.2419924858861238      -0.013534727146354316
0.052149494850531594      -0.2391318970735663      -0.040445499138191184
0.050919431354254543      -0.23344425723681714     -0.06688208463230522
0.049092384081428936      -0.22499624875270366     -0.09253453883497856
0.04668977349084339       -0.21388691679661415     -0.11710211017494751
0.04373976799494469       -0.2002465081283747      -0.1402967663405956
0.04027695371095653       -0.18423494406807592     -0.1618465711954569
0.036341928970277375      -0.16603994556481216     -0.18149887298078266
0.03198082834016424       -0.14587483234018836     -0.19902326642641086
0.027244781738112855      -0.12397602190962431     -0.21421429404189732
0.022189314980323612      -0.10060025780314523     -0.22689385491773928
0.016873698792274235      -0.07602159948223458     -0.23691329279570064
0.011360253913655395      -0.05052820924322353     -0.24415513892752164
0.005713620444678132      -0.024418973777835307    -0.2485344892885899
0.007111597747275422      -0.024077438745795918    0.2485344892885899
0.014139818513159865      -0.049849143365127       0.24415513892752164
0.02100226283513687       -0.07501296418462584     0.2369132927957006
0.027618474827923924      -0.09927387841268458     0.22689385491773925
0.033910885455165914      -0.12234744901194465     0.21421429404189732
0.039805721955464335      -0.1439631594634965      0.19902326642641094
0.04523387276055359       -0.16386758532572826     0.18149887298078274
0.05013169776524963       -0.18182736540419536     0.16184657119545692
0.05444177444949649       -0.19763193769826126     0.14029676634059562
0.05811357110491208       -0.21109600804803635     0.11710211017494754
0.061104039272867325      -0.22206172253898634     0.09253453883497864
0.0633781184483041        -0.23040051819475335     0.0668820846323052
0.06490914713210083       -0.23601463026050704     0.040445499138191156
0.06567917541277284       -0.23883823840530793     0.013534727146354402
0.06567917541277284       -0.23883823840530793     -0.013534727146354316
0.06490914713210083       -0.23601463026050704     -0.040445499138191184
0.0633781184483041        -0.23040051819475335     -0.06688208463230522
0.06110403927286734       -0.2220617225389864      -0.09253453883497856
0.05811357110491209       -0.21109600804803638     -0.11710211017494751
0.05444177444949649       -0.19763193769826126     -0.1402967663405956
0.05013169776524963       -0.18182736540419536     -0.1618465711954569
0.045233872760553615      -0.16386758532572832     -0.18149887298078266
0.039805721955464356      -0.14396315946349658     -0.19902326642641086
0.03391088545516591       -0.12234744901194462     -0.21421429404189732
0.02761847482792391       -0.09927387841268454     -0.22689385491773928
0.021002262835136856      -0.07501296418462579     -0.23691329279570064
0.014139818513159878      -0.04984914336512704     -0.24415513892752164
0.007111597747275433      -0.02407743874579596     -0.2485344892885899
0.008489416453408031      -0.02366198438040979     0.2485344892885899
0.016879302260847336      -0.04902310545693534     0.24415513892752164
0.025071293682171442      -0.07378602727284854     0.2369132927957006
0.0329693471079745        -0.09766042721081311     0.22689385491773925
0.04048086508309808       -0.12036639976012846     0.21421429404189732
0.04751778192713024       -0.14163773815292252     0.19902326642641094
0.05399759622398914       -0.16122505539510998     0.18149887298078274
0.05984433807559482       -0.17889870810088115     0.16184657119545692
0.06498945977946423       -0.19445148885143557     0.14029676634059562
0.06937263948784918       -0.20770105551251608     0.11710211017494754
0.07294248842624822       -0.21849206902921578     0.09253453883497864
0.0756571533798027        -0.22669801463436923     0.0668820846323052
0.07748480738397401       -0.23222268511852354     0.040445499138191156
0.07840402286660318       -0.23500130877150635     0.013534727146354402
0.07840402286660318       -0.23500130877150635     -0.013534727146354316
0.07748480738397401       -0.23222268511852354     -0.040445499138191184
0.0756571533798027        -0.22669801463436923     -0.06688208463230522
0.07294248842624824       -0.21849206902921584     -0.09253453883497856
0.06937263948784918       -0.2077010555125161      -0.11710211017494751
0.06498945977946423       -0.19445148885143557     -0.1402967663405956
0.05984433807559482       -0.17889870810088115     -0.1618465711954569
0.05399759622398917       -0.16122505539511006     -0.18149887298078266
0.04751778192713027       -0.1416377381529226      -0.19902326642641086
0.040480865083098075      -0.12036639976012843     -0.21421429404189732
0.03296934710797449       -0.09766042721081308     -0.22689385491773928
0.025071293682171425      -0.0737860272728485      -0.23691329279570064
0.01687930226084735       -0.04902310545693539     -0.24415513892752164
0.008489416453408043      -0.023661984380409833    -0.2485344892885899
0.00984317098625828       -0.023173788332213223    0.2485344892885899
0.01957093979239974       -0.048052437012845395    0.24415513892752164
0.02906925722335621       -0.07234426663288156     0.2369132927957006
0.03822676419164416       -0.09576447770025838     0.22689385491773925
0.0469360973008489        -0.11803848965351406     0.21421429404189732
0.05509514758328419       -0.13890516006782003     0.19902326642641094
0.0626082576342793        -0.15811984631114723     0.18149887298078274
0.06938734310778832       -0.17545727375544784     0.16184657119545692
0.07535292542481134       -0.19071417691569847     0.14029676634059562
0.08043506358706519       -0.2037116825518649      0.11710211017494754
0.08457417417124065       -0.21429740679409562     0.09253453883497864
0.08772172989016319       -0.2223472417042706      0.0668820846323052
0.08984082853086608       -0.22776681032810223     0.040445499138191156
0.09090662559929742       -0.2304925731786349      0.013534727146354402
0.09090662559929742       -0.2304925731786349      -0.013534727146354316
0.08984082853086608       -0.22776681032810223     -0.040445499138191184
0.08772172989016319       -0.2223472417042706      -0.06688208463230522
0.08457417417124068       -0.21429740679409565     -0.09253453883497856
0.0804350635870652        -0.20371168255186492     -0.11710211017494751
0.07535292542481134       -0.19071417691569847     -0.1402967663405956
0.06938734310778832       -0.17545727375544784     -0.1618465711954569
0.06260825763427932       -0.15811984631114728     -0.18149887298078266
0.05509514758328422       -0.1389051600678201      -0.19902326642641086
0.04693609730084889       -0.11803848965351403     -0.21421429404189732
0.03822676419164415       -0.09576447770025835     -0.22689385491773928
0.02906925722335619       -0.07234426663288152     -0.23691329279570064
0.019570939792399756      -0.04805243701284544     -0.24415513892752164
0.009843170986258296      -0.023173788332213258    -0.2485344892885899
0.011169023981522135      -0.022614234445945597    0.2485344892885899
0.02220710136879693       -0.046939889498021636    0.24415513892752164
0.032984820796669         -0.07069176909190109     0.2369132927957006
0.04337582335900938       -0.09359140415589627     0.22689385491773925
0.053258284051358865      -0.11537031740621788     0.21421429404189732
0.06251634005771965       -0.13577317099765615     0.19902326642641094
0.07104144913613848       -0.15456076012635842     0.18149887298078274
0.07873366217725247       -0.17151281748744726     0.16184657119545692
0.08550279501621198       -0.18643059570777765     0.14029676634059562
0.09126948575955743       -0.199139197477171       0.11710211017494754
0.09596612523085866       -0.2094896260594665      0.09253453883497864
0.09953764962649315       -0.21736053214302395     0.0668820846323052
0.10194218608839796       -0.22265963655045165     0.040445499138191156
0.10315154362504587       -0.22532481212758979     0.013534727146354402
0.10315154362504587       -0.22532481212758979     -0.013534727146354316
0.10194218608839796       -0.22265963655045165     -0.040445499138191184
0.09953764962649315       -0.21736053214302395     -0.06688208463230522
0.09596612523085869       -0.20948962605946655     -0.09253453883497856
0.09126948575955744       -0.19913919747717101     -0.11710211017494751
0.08550279501621198       -0.18643059570777765     -0.1402967663405956
0.07873366217725247       -0.17151281748744726     -0.1618465711954569
0.07104144913613851       -0.1545607601263585      -0.18149887298078266
0.06251634005771968       -0.13577317099765623     -0.19902326642641086
0.05325828405135885       -0.11537031740621785     -0.21421429404189732
0.04337582335900936       -0.09359140415589623     -0.22689385491773928
0.03298482079666898       -0.07069176909190103     -0.23691329279570064
0.02220710136879695       -0.046939889498021685    -0.24415513892752164
0.011169023981522152      -0.02261423444594563     -0.2485344892885899
0.012463217164835266      -0.0219849088378911      0.2485344892885899
0.024780314503640957      -0.04568861654926921     0.24415513892752164
0.03680688531174908       -0.06883321883372506     0.2369132927957006
0.048401929042433116      -0.09114736639078508     0.22689385491773925
0.05942950440940036       -0.11236944624236239     0.21421429404189732
0.06976032317408146       -0.1322506489057299      0.19902326642641094
0.07927326593201817       -0.1505578854572166      0.18149887298078274
0.08785680212714023       -0.16707652028672232     0.16184657119545692
0.09541029764556178       -0.1816128875040029      0.14029676634059562
0.10184519465855618       -0.19399656149416308     0.11710211017494754
0.10708604988212847       -0.20408235500216926     0.09253453883497864
0.11107141908054194       -0.21175202132066911     0.0668820846323052
0.11375457744380298       -0.21691564062452098     0.040445499138191156
0.11510406739333741       -0.21951267419852927     0.013534727146354402
0.11510406739333741       -0.21951267419852927     -0.013534727146354316
0.11375457744380298       -0.21691564062452098     -0.040445499138191184
0.11107141908054194       -0.21175202132066911     -0.06688208463230522
0.1070860498821285        -0.2040823550021693      -0.09253453883497856
0.1018451946585562        -0.1939965614941631      -0.11710211017494751
0.09541029764556178       -0.1816128875040029      -0.1402967663405956
0.08785680212714023       -0.16707652028672232     -0.1618465711954569
0.07927326593201821       -0.15055788545721668     -0.18149887298078266
0.06976032317408148       -0.13225064890573        -0.19902326642641086
0.05942950440940035       -0.11236944624236236     -0.21421429404189732
0.048401929042433095      -0.09114736639078504     -0.22689385491773928
0.03680688531174906       -0.06883321883372502     -0.23691329279570064
0.02478031450364098       -0.04568861654926925     -0.24415513892752164
0.012463217164835285      -0.021984908837891143    -0.2485344892885899
0.013722082005010046      -0.021287595399859784    0.2485344892885899
0.02728328514473057       -0.04430216503570773     0.24415513892752164
0.040524616711474636      -0.06677388412098523     0.2369132927957006
0.053290834199287054      -0.08843929229550608     0.22689385491773925
0.06543226538038718       -0.10904438245729561     0.21421429404189732
0.07680656307519304       -0.12834757876362046     0.19902326642641094
0.08728037404285256       -0.14612256888686964     0.18149887298078274
0.09673090242606666       -0.16216095731967656     0.16184657119545692
0.10504734942024262       -0.17627470862170486     0.14029676634059562
0.11213221228817376       -0.18829835196326422     0.11710211017494754
0.11790242749048542       -0.1980909211194967      0.09253453883497864
0.12229034452968865       -0.20553760717047695     0.0668820846323052
0.12524451909040957       -0.21055110453082718     0.040445499138191156
0.12673031617695124       -0.21307263452788155     0.013534727146354402
0.12673031617695124       -0.21307263452788155     -0.013534727146354316
0.12524451909040957       -0.21055110453082718     -0.040445499138191184
0.12229034452968865       -0.20553760717047695     -0.06688208463230522
0.11790242749048545       -0.19809092111949675     -0.09253453883497856
0.11213221228817377       -0.18829835196326425     -0.11710211017494751
0.10504734942024262       -0.17627470862170486     -0.1402967663405956
0.09673090242606666       -0.16216095731967656     -0.1618465711954569
0.0872803740428526        -0.14612256888686972     -0.18149887298078266
0.07680656307519308       -0.12834757876362052     -0.19902326642641086
0.06543226538038717       -0.10904438245729559     -0.21421429404189732
0.05329083419928703       -0.08843929229550604     -0.22689385491773928
0.04052461671147461       -0.06677388412098519     -0.23691329279570064
0.027283285144730593      -0.044302165035707775    -0.24415513892752164
0.013722082005010067      -0.021287595399859825    -0.2485344892885899
0.01494205011288577       -0.020524270742552392    0.2485344892885899
0.029708918349844654      -0.04278446500478548     0.24415513892752164
0.0441274766822747        -0.0645196023616643      0.2369132927957006
0.05802868069674176       -0.08547485820030505     0.22689385491773925
0.07124955148616825       -0.10540455130557279     0.21421429404189732
0.08363508642850558       -0.12407502424770042     0.19902326642641094
0.09504007645075742       -0.1412673828020177      0.18149887298078274
0.10533080847259474       -0.15678006228359864     0.16184657119545692
0.11438663306996744       -0.17043119070889973     0.14029676634059562
0.12210137897929077       -0.18206072107848012     0.11710211017494754
0.12838459785843734       -0.19153230778173744     0.09253453883497864
0.13316262471085097       -0.1987349051245304      0.0668820846323052
0.13637944154027873       -0.20358406923841227     0.040445499138191156
0.1379973341105592        -0.2060229481077807      0.013534727146354402
0.1379973341105592        -0.2060229481077807      -0.013534727146354316
0.13637944154027873       -0.20358406923841227     -0.040445499138191184
0.13316262471085097       -0.1987349051245304      -0.06688208463230522
0.12838459785843737       -0.1915323077817375      -0.09253453883497856
0.12210137897929078       -0.18206072107848015     -0.11710211017494751
0.11438663306996744       -0.17043119070889973     -0.1402967663405956
0.10533080847259474       -0.15678006228359864     -0.1618465711954569
0.09504007645075747       -0.14126738280201778     -0.18149887298078266
0.08363508642850562       -0.12407502424770048     -0.19902326642641086
0.07124955148616824       -0.10540455130557276     -0.21421429404189732
0.05802868069674174       -0.08547485820030502     -0.22689385491773928
0.04412747668227467       -0.06451960236166426     -0.23691329279570064
0.02970891834984468       -0.04278446500478551     -0.24415513892752164
0.014942050112885795      -0.020524270742552427    -0.2485344892885899
0.01611966335631543       -0.019697098592642584    0.2485344892885899
0.032050338398126814      -0.04113981854213285     0.24415513892752164
0.04760525252612403       -0.06207676356232887     0.2369132927957006
0.0626020385941499        -0.08226246711570019     0.22689385491773925
0.07686487299724908       -0.1014602702840483      0.21421429404189732
0.09022653704267909       -0.11944509637794318     0.19902326642641094
0.10253037743619321       -0.13600608975511716     0.18149887298078274
0.11363214289868606       -0.15094908791008363     0.16184657119545692
0.12340167538055083       -0.16409889785198897     0.14029676634059562
0.13172443604580644       -0.17530135008225037     0.11710211017494754
0.13850284813522534       -0.18442510609096763     0.09253453883497864
0.14365744096462044       -0.1913631981808683      0.0668820846323052
0.14712778164595625       -0.1960342835657564      0.040445499138191156
0.14887318360770674       -0.1983835980403081      0.013534727146354402
0.14887318360770674       -0.1983835980403081      -0.013534727146354316
0.14712778164595625       -0.1960342835657564      -0.040445499138191184
0.14365744096462044       -0.1913631981808683      -0.06688208463230522
0.13850284813522537       -0.18442510609096766     -0.09253453883497856
0.13172443604580647       -0.1753013500822504      -0.11710211017494751
0.12340167538055083       -0.16409889785198897     -0.1402967663405956
0.11363214289868606       -0.15094908791008363     -0.1618465711954569
0.10253037743619325       -0.13600608975511724     -0.18149887298078266
0.09022653704267913       -0.11944509637794323     -0.19902326642641086
0.07686487299724905       -0.10146027028404828     -0.21421429404189732
0.06260203859414987       -0.08226246711570015     -0.22689385491773928
0.04760525252612399       -0.062076763562328816    -0.23691329279570064
0.03205033839812684       -0.04113981854213289     -0.24415513892752164
0.016119663356315456      -0.01969709859264262     -0.2485344892885899
0.017251583662616997      -0.018808423659458624    0.2485344892885899
0.034300908280063165      -0.03937288757683328     0.24415513892752164
0.050948086109545127      -0.05945229221496143     0.2369132927957006
0.06699794421167202       -0.07881122491323574     0.22689385491773925
0.08226231267472162       -0.09722271988580988     0.21421429404189732
0.09656223073480984       -0.11447091918792086     0.19902326642641094
0.10973004492722192       -0.1303536034529304      0.18149887298078274
0.12161137466999919       -0.14468456272950803     0.16184657119545692
0.1320669222351109        -0.1572957796230568      0.14029676634059562
0.1409741058869545        -0.16803939914604554     0.11710211017494754
0.1482284970411277        -0.17678946218255207     0.09253453883497864
0.153745044594101         -0.1834433822437324      0.0668820846323052
0.1574590720696433        -0.18792314820060632     0.040445499138191156
0.15932703589137148       -0.1901762388932184      0.013534727146354402
0.15932703589137148       -0.1901762388932184      -0.013534727146354316
0.1574590720696433        -0.18792314820060632     -0.040445499138191184
0.153745044594101         -0.1834433822437324      -0.06688208463230522
0.14822849704112773       -0.17678946218255212     -0.09253453883497856
0.1409741058869545        -0.16803939914604554     -0.11710211017494751
0.1320669222351109        -0.1572957796230568      -0.1402967663405956
0.12161137466999919       -0.14468456272950803     -0.1618465711954569
0.10973004492722198       -0.13035360345293048     -0.18149887298078266
0.09656223073480989       -0.11447091918792092     -0.19902326642641086
0.08226231267472159       -0.09722271988580987     -0.21421429404189732
0.06699794421167199       -0.0788112249132357      -0.22689385491773928
0.05094808610954509       -0.059452292214961386    -0.23691329279570064
0.0343009082800632        -0.03937288757683331     -0.24415513892752164
0.01725158366261702       -0.01880842365945866     -0.2485344892885899
0.0183346024807031        -0.01786076498865003     0.2485344892885899
0.036454248510806864      -0.037488680666678736    0.24415513892752164
0.0541465018075587        -0.05665362766873569     0.2369132927957006
0.07120393687723561       -0.0751309145138999      0.22689385491773925
0.08742657088940727       -0.09270391190785629     0.21421429404189732
0.10262420829277667       -0.10916659252330546     0.19902326642641094
0.11661867068412173       -0.12432594648200371     0.18149887298078274
0.1292458857871629        -0.1380042442191148      0.16184657119545692
0.14035781104998984       -0.150041120199858       0.14029676634059562
0.14982416930862616       -0.16029545305877974     0.11710211017494754
0.15753397616766313       -0.16864702011873509     0.09253453883497864
0.16339684119082226       -0.17499790689185668     0.0668820846323052
0.16734402764617562       -0.17927365503740084     0.040445499138191156
0.1693292583814811        -0.18142413531771479     0.013534727146354402
0.1693292583814811        -0.18142413531771479     -0.013534727146354316
0.16734402764617562       -0.17927365503740084     -0.040445499138191184
0.16339684119082226       -0.17499790689185668     -0.06688208463230522
0.15753397616766315       -0.1686470201187351      -0.09253453883497856
0.14982416930862616       -0.16029545305877976     -0.11710211017494751
0.14035781104998984       -0.150041120199858       -0.1402967663405956
0.1292458857871629        -0.1380042442191148      -0.1618465711954569
0.11661867068412178       -0.12432594648200376     -0.18149887298078266