% Model:              loudspeaker_radiation_BEM_60.mph
% Version:            COMSOL 6.1.0.357
% Date:               Nov 6 2023, 10:31
% Dimension:          3
% Nodes:              162
% Elements:           304
% Expressions:        1
% Description:        Radiation pattern
% Coordinates
0                         0.002                    0.25
5.23567342209624E-18      -0.08350503583141718     0.23492315519647708
0.01407366633961159       -0.08233885859017312     0.23492315519647708
9.839847359177483E-18     -0.15869690242163484     0.19151111077974453
0.026449840813472073      -0.15650520612538382     0.19151111077974453
1.3257190484061335E-17    -0.21450635094610965     0.12500000000000003
0.03563577412715172       -0.21155348651417194     0.12500000000000003
1.507552078127372E-17     -0.24420193825305198     0.043412044416732604
0.04052350715308366       -0.24084406471555692     0.043412044416732604
1.507552078127372E-17     -0.24420193825305198     -0.043412044416732576
0.04052350715308366       -0.24084406471555692     -0.043412044416732576
1.325719048406134E-17     -0.2145063509461097      -0.12499999999999993
0.03563577412715173       -0.211553486514172       -0.12499999999999993
9.839847359177484E-18     -0.15869690242163487     -0.19151111077974448
0.02644984081347208       -0.15650520612538385     -0.19151111077974448
5.235673422096242E-18     -0.08350503583141722     -0.23492315519647708
0.014073666339611594      -0.08233885859017316     -0.23492315519647708
1.874699728327322E-33     0.0019999999999999693    -0.25
0.02776343974878861       -0.07887213714158492     0.23492315519647708
0.05217819891914166       -0.1499899009982667      0.19151111077974453
0.07029949723164475       -0.202775439662519       0.12500000000000003
0.07994163866793026       -0.2308620381398516      0.043412044416732604
0.07994163866793026       -0.2308620381398516      -0.043412044416732576
0.07029949723164476       -0.20277543966251907     -0.12499999999999993
0.05217819891914167       -0.14998990099826673     -0.19151111077974448
0.02776343974878862       -0.07887213714158496     -0.23492315519647708
0.040695898895504574      -0.07319943460970171     0.23492315519647708
0.0764832717767101        -0.1393287075800183      0.19151111077974453
0.10304563330877065       -0.18841165262660362     0.12500000000000003
0.11717917067221466       -0.21452814218972        0.043412044416732604
0.11717917067221466       -0.21452814218972        -0.043412044416732576
0.10304563330877067       -0.18841165262660367     -0.12499999999999993
0.07648327177671012       -0.13932870758001833     -0.19151111077974448
0.040695898895504595      -0.07319943460970176     -0.23492315519647708
0.052518280006642         -0.06547548753196143     0.23492315519647708
0.0987020803572192        -0.12481243543543147     0.19151111077974453
0.13298095312915126       -0.16885393207316732     0.12500000000000003
0.1512203603638612        -0.19228792296739286     0.043412044416732604
0.1512203603638612        -0.19228792296739286     -0.043412044416732576
0.13298095312915129       -0.16885393207316737     -0.12499999999999993
0.09870208035721922       -0.1248124354354315      -0.19151111077974448
0.05251828000664203       -0.06547548753196147     -0.23492315519647708
0.06290809934413649       -0.05591098504981753     0.23492315519647708
0.11822855348270382       -0.1068370506275132      0.19151111077974453
0.15928889920364125       -0.1446357616357354      0.12500000000000003
0.18113665282684027       -0.1647480356773307      0.043412044416732604
0.18113665282684027       -0.1647480356773307      -0.043412044416732576
0.15928889920364128       -0.14463576163573544     -0.12499999999999993
0.11822855348270384       -0.10683705062751322     -0.19151111077974448
0.06290809934413652       -0.055910985049817556    -0.23492315519647708
0.07158194972069884       -0.04476682185818573     0.23492315519647708
0.13453005986801725       -0.08589287479549253     0.19151111077974453
0.1812518593430257        -0.11641774987178241     0.12500000000000003
0.20611200958871606       -0.13265969665367824     0.043412044416732604
0.20611200958871606       -0.13265969665367824     -0.043412044416732576
0.18125185934302576       -0.11641774987178244     -0.12499999999999993
0.13453005986801728       -0.08589287479549254     -0.19151111077974448
0.07158194972069888       -0.04476682185818576     -0.23492315519647708
0.07830323110909679       -0.0323469816782685      0.23492315519647708
0.14716193691382368       -0.06255121045867541     0.19151111077974453
0.19827074124786617       -0.08496961058336236     0.12500000000000003
0.22546516802292044       -0.0968981921369439      0.043412044416732604
0.22546516802292044       -0.0968981921369439      -0.043412044416732576
0.19827074124786623       -0.08496961058336239     -0.12499999999999993
0.1471619369138237        -0.06255121045867543     -0.19151111077974448
0.07830323110909683       -0.032346981678268515    -0.23492315519647708
0.0828886044741278        -0.018990245374066933    0.23492315519647708
0.15577961994315945       -0.0374487573729925      0.19151111077974453
0.2098813141847127        -0.051149167031082556    0.12500000000000003
0.23866822441728722       -0.058439002747059425    0.043412044416732604
0.23866822441728722       -0.058439002747059425    -0.043412044416732576
0.20988131418471276       -0.05114916703108257     -0.12499999999999993
0.15577961994315948       -0.037448757372992504    -0.19151111077974448
0.08288860447412784       -0.018990245374066947    -0.23492315519647708
0.08521299278357002       -0.005060949893546753    0.23492315519647708
0.16014804102760724       -0.01127024502140986     0.19151111077974453
0.2157668719903528        -0.01587895275173281     0.12500000000000003
0.24536103381117721       -0.018331194914956613    0.043412044416732604
0.24536103381117721       -0.018331194914956613    -0.043412044416732576
0.21576687199035285       -0.015878952751732817    -0.12499999999999993
0.16014804102760727       -0.011270245021409863    -0.19151111077974448
0.08521299278357006       -0.005060949893546757    -0.23492315519647708
0.08521299278357002       0.009060949893546753     0.23492315519647708
0.16014804102760724       0.01527024502140986      0.19151111077974453
0.2157668719903528        0.019878952751732813     0.12500000000000003
0.24536103381117721       0.02233119491495661      0.043412044416732604
0.24536103381117721       0.02233119491495661      -0.043412044416732576
0.21576687199035285       0.01987895275173282      -0.12499999999999993
0.16014804102760727       0.015270245021409863     -0.19151111077974448
0.08521299278357006       0.009060949893546756     -0.23492315519647708
0.0828886044741278        0.022990245374066916     0.23492315519647708
0.15577961994315945       0.041448757372992466     0.19151111077974453
0.2098813141847127        0.05514916703108251      0.12500000000000003
0.23866822441728722       0.06243900274705937      0.043412044416732604
0.23866822441728722       0.06243900274705937      -0.043412044416732576
0.20988131418471276       0.055149167031082524     -0.12499999999999993
0.15577961994315948       0.04144875737299247      -0.19151111077974448
0.08288860447412784       0.022990245374066923     -0.23492315519647708
0.07830323110909679       0.036346981678268504     0.23492315519647708
0.14716193691382368       0.06655121045867542      0.19151111077974453
0.19827074124786617       0.08896961058336236      0.12500000000000003
0.22546516802292044       0.1008981921369439       0.043412044416732604
0.22546516802292044       0.1008981921369439       -0.043412044416732576
0.19827074124786623       0.08896961058336239      -0.12499999999999993
0.1471619369138237        0.06655121045867543      -0.19151111077974448
0.07830323110909683       0.03634698167826852      -0.23492315519647708
0.07158194972069883       0.048766821858185753     0.23492315519647708
0.13453005986801722       0.08989287479549256      0.19151111077974453
0.18125185934302565       0.12041774987178246      0.12500000000000003
0.206112009588716         0.1366596966536783       0.043412044416732604
0.206112009588716         0.1366596966536783       -0.043412044416732576
0.1812518593430257        0.1204177498717825       -0.12499999999999993
0.13453005986801725       0.08989287479549257      -0.19151111077974448
0.07158194972069885       0.048766821858185774     -0.23492315519647708
0.06290809934413649       0.059910985049817525     0.23492315519647708
0.11822855348270384       0.11083705062751319      0.19151111077974453
0.15928889920364128       0.1486357616357354       0.12500000000000003
0.1811366528268403        0.16874803567733068      0.043412044416732604
0.1811366528268403        0.16874803567733068      -0.043412044416732576
0.1592888992036413        0.14863576163573541      -0.12499999999999993
0.11822855348270385       0.11083705062751321      -0.19151111077974448
0.06290809934413653       0.05991098504981755      -0.23492315519647708
0.05251828000664201       0.06947548753196144      0.23492315519647708
0.09870208035721922       0.12881243543543147      0.19151111077974453
0.13298095312915129       0.17285393207316732      0.12500000000000003
0.15122036036386122       0.19628792296739286      0.043412044416732604
0.15122036036386122       0.19628792296739286      -0.043412044416732576
0.1329809531291513        0.17285393207316738      -0.12499999999999993
0.09870208035721924       0.1288124354354315       -0.19151111077974448
0.052518280006642035      0.06947548753196148      -0.23492315519647708
0.040695898895504574      0.07719943460970172      0.23492315519647708
0.0764832717767101        0.1433287075800183       0.19151111077974453
0.10304563330877065       0.19241165262660362      0.12500000000000003
0.11717917067221466       0.21852814218972         0.043412044416732604
0.11717917067221466       0.21852814218972         -0.043412044416732576
0.10304563330877067       0.19241165262660367      -0.12499999999999993
0.07648327177671012       0.14332870758001834      -0.19151111077974448
0.040695898895504595      0.07719943460970176      -0.23492315519647708
0.027763439748788574      0.08287213714158494      0.23492315519647708
0.0521781989191416        0.15398990099826673      0.19151111077974453
0.07029949723164466       0.20677543966251904      0.12500000000000003
0.07994163866793016       0.23486203813985163      0.043412044416732604
0.07994163866793016       0.23486203813985163      -0.043412044416732576
0.07029949723164468       0.2067754396625191       -0.12499999999999993
0.052178198919141605      0.15398990099826673      -0.19151111077974448
0.027763439748788588      0.08287213714158498      -0.23492315519647708
0.01407366633961159       0.08633885859017312      0.23492315519647708
0.026449840813472073      0.16050520612538383      0.19151111077974453
0.03563577412715172       0.21555348651417194      0.12500000000000003
0.04052350715308366       0.24484406471555692      0.043412044416732604
0.04052350715308366       0.24484406471555692      -0.043412044416732576
0.03563577412715173       0.215553486514172        -0.12499999999999993
0.02644984081347208       0.16050520612538385      -0.19151111077974448
0.014073666339611594      0.08633885859017316      -0.23492315519647708
5.23567342209624E-18      0.08750503583141718      0.23492315519647708
9.839847359177483E-18     0.16269690242163484      0.19151111077974453
1.3257190484061335E-17    0.21850635094610965      0.12500000000000003
1.507552078127372E-17     0.24820193825305198      0.043412044416732604
1.507552078127372E-17     0.24820193825305198      -0.043412044416732576
1.325719048406134E-17     0.2185063509461097       -0.12499999999999993
9.839847359177484E-18     0.16269690242163487      -0.19151111077974448
5.235673422096242E-18     0.08750503583141722      -0.23492315519647708
% Elements (triangles)
1          2         3
2          4         5
2          5         3
4          6         7
4          7         5
6          8         9
6          9         7
8          10        11
8          11        9
10         12        13
10         13        11
12         14        15
12         15        13
14         16        17
14         17        15
16         18        17
1          3         19
3          5         20
3          20        19
5          7         21
5          21        20
7          9         22
7          22        21
9          11        23
9          23        22
11         13        24
11         24        23
13         15        25
13         25        24
15         17        26
15         26        25
17         18        26
1          19        27
19         20        28
19         28        27
20         21        29
20         29        28
21         22        30
21         30        29
22         23        31
22         31        30
23         24        32
23         32        31
24         25        33
24         33        32
25         26        34
25         34        33
26         18        34
1          27        35
27         28        36
27         36        35
28         29        37
28         37        36
29         30        38
29         38        37
30         31        39
30         39        38
31         32        40
31         40        39
32         33        41
32         41        40
33         34        42
33         42        41
34         18        42
1          35        43
35         36        44
35         44        43
36         37        45
36         45        44
37         38        46
37         46        45
38         39        47
38         47        46
39         40        48
39         48        47
40         41        49
40         49        48
41         42        50
41         50        49
42         18        50
1          43        51
43         44        52
43         52        51
44         45        53
44         53        52
45         46        54
45         54        53
46         47        55
46         55        54
47         48        56
47         56        55
48         49        57
48         57        56
49         50        58
49         58        57
50         18        58
1          51        59
51         52        60
51         60        59
52         53        61
52         61        60
53         54        62
53         62        61
54         55        63
54         63        62
55         56        64
55         64        63
56         57        65
56         65        64
57         58        66
57         66        65
58         18        66
1          59        67
59         60        68
59         68        67
60         61        69
60         69        68
61         62        70
61         70        69
62         63        71
62         71        70
63         64        72
63         72        71
64         65        73
64         73        72
65         66        74
65         74        73
66         18        74
1          67        75
67         68        76
67         76        75
68         69        77
68         77        76
69         70        78
69         78        77
70         71        79
70         79        78
71         72        80
71         80        79
72         73        81
72         81        80
73         74        82
73         82        81
74         18        82
1          75        83
75         76        84
75         84        83
76         77        85
76         85        84
77         78        86
77         86        85
78         79        87
78         87        86
79         80        88
79         88        87
80         81        89
80         89        88
81         82        90
81         90        89
82         18        90
1          83        91
83         84        92
83         92        91
84         85        93
84         93        92
85         86        94
85         94        93
86         87        95
86         95        94
87         88        96
87         96        95
88         89        97
88         97        96
89         90        98
89         98        97
90         18        98
1          91        99
91         92        100
91         100       99
92         93        101
92         101       100
93         94        102
93         102       101
94         95        103
94         103       102
95         96        104
95         104       103
96         97        105
96         105       104
97         98        106
97         106       105
98         18        106
1          99        107
99         100       108
99         108       107
100        101       109
100        109       108
101        102       110
101        110       109
102        103       111
102        111       110
103        104       112
103        112       111
104        105       113
104        113       112
105        106       114
105        114       113
106        18        114
1          107       115
107        108       116
107        116       115
108        109       117
108        117       116
109        110       118
109        118       117
110        111       119
110        119       118
111        112       120
111        120       119
112        113       121
112        121       120
113        114       122
113        122       121
114        18        122
1          115       123
115        116       124
115        124       123
116        117       125
116        125       124
117        118       126
117        126       125
118        119       127
118        127       126
119        120       128
119        128       127
120        121       129
120        129       128
121        122       130
121        130       129
122        18        130
1          123       131
123        124       132
123        132       131
124        125       133
124        133       132
125        126       134
125        134       133
126        127       135
126        135       134
127        128       136
127        136       135
128        129       137
128        137       136
129        130       138
129        138       137
130        18        138
1          131       139
131        132       140
131        140       139
132        133       141
132        141       140
133        134       142
133        142       141
134        135       143
134        143       142
135        136       144
135        144       143
136        137       145
136        145       144
137        138       146
137        146       145
138        18        146
1          139       147
139        140       148
139        148       147
140        141       149
140        149       148
141        142       150
141        150       149
142        143       151
142        151       150
143        144       152
143        152       151
144        145       153
144        153       152
145        146       154
145        154       153
146        18        154
1          147       155
147        148       156
147        156       155
148        149       157
148        157       156
149        150       158
149        158       157
150        151       159
150        159       158
151        152       160
151        160       159
152        153       161
152        161       160
153        154       162
153        162       161
154        18        162
% Data (Distance for evlauting the spatial response)
0.026146927343452166
0.022162897537585678
0.02221887840837255
0.0184585045648413
0.018573523259342275
0.015820216336099122
0.015968474206103863
0.0147234387020861
0.01489710548440305
0.014723512695364017
0.0148971816233642
0.01582038256101119
0.015968496803559343
0.018458599247756727
0.018573416494547558
0.022162911580726103
0.022219001361240807
0.026147004591413416
0.02238531728594663
0.01891961501820536
0.016423550459528105
0.015424343202580244
0.015424524259097452
0.016423532228232045
0.018919626692793592
0.022385527028492322
0.022656909322453504
0.019495419874216137
0.017217999712152685
0.016313301017032267
0.016313370084202656
0.017217756289811044
0.019495545590669808
0.0226572412470708
0.02302539787293043
0.02027847886405152
0.018355647030239966
0.017530407590663176
0.017530516408449423
0.018356018185407837
0.02027870852156319
0.023025555413016766
0.023478877887748443
0.021214829806340145
0.019690643400405505
0.018973652221144825
0.018973900454941538
0.019691104793333792
0.021215135290279796
0.023479043975975538
0.024004310731370156
0.022255481948076947
0.021112643955884282
0.020551547750205627
0.020551765147758527
0.02111307856249029
0.02225579901242039
0.02400425045369584
0.02458654734596504
0.023372070906349147
0.02260574102422344
0.022223319721229862
0.022223416289601953
0.022605511340174873
0.02337218212747876
0.0245867273837859
0.025210619268064508
0.024543780927080847
0.024158450997591834
0.023966657619020025
0.023966782021941444
0.024158251378630854
0.024543904391609805
0.025210816055536475
0.02586039025271365
0.02574981265599804
0.025751597902388203
0.025756913165264655
0.025757192964021926
0.025751580236085918
0.025750077076059343
0.025860582429625325
0.02651965167951356
0.02696825688372644
0.02735940444829601
0.0275637784845672
0.02756391693100691
0.027359446131153358
0.026968223222479246
0.026519573503540603
0.02717170255768984
0.02817487841763273
0.028950134799922513
0.029350561576434616
0.029350738477397036
0.02895015445799885
0.028174910685249854
0.027171855494058327
0.027800002436344774
0.029341868242126798
0.03048582388917863
0.03107422290326619
0.031074385172061854
0.030485906784006003
0.029342007692913133
0.02780022761337916
0.028387213671301266
0.030435702863386597
0.03192235989967485
0.032686162339224736
0.032686263454401614
0.03192243015783262
0.03043558173225796
0.02838731299825295
0.028916264026567728
0.031419363048553556
0.033213842769579865
0.03413676636685142
0.034136863433896776
0.03321399802098868
0.03141932308135068
0.028916506883382796
0.02937192101851959
0.03226048107368703
0.034319414163976936
0.0353810712803379
0.035381262775386065
0.034319642845458895
0.03226043464145808
0.02937205956158805
0.029740514987444185
0.03293557273014993
0.03520816898796754
0.03638335775384155
0.03638343306702866
0.03520830728682975
0.0329354465269375
0.029740543560179043
0.030011138719101594
0.033428501819963104
0.035858035642122414
0.03711711944341988
0.037117150604246175
0.035858037939974434
0.03342824007805721
0.030010958340811515
0.0301762664531356
0.033728191362528054
0.036253693295440384
0.03756434496533111
0.03756417501808211
0.036253558511530996
0.03372801913913775
0.030176250767559823
0.030231759540800218
0.033828769551535944
0.036386631818270704
0.037714608310047755
0.03771466912921528
0.036386603459045166
0.0338287580050348
0.030231853671393954
% Model:              loudspeaker_radiation_BEM_60.mph
% Version:            COMSOL 6.1.0.357
% Date:               Nov 6 2023, 10:31
% Dimension:          3
% Nodes:              162
% Elements:           304
% Expressions:        1
% Description:        Radiation pattern
% Coordinates
0                         0.002                    0.25
5.23567342209624E-18      -0.08350503583141718     0.23492315519647708
0.01407366633961159       -0.08233885859017312     0.23492315519647708
9.839847359177483E-18     -0.15869690242163484     0.19151111077974453
0.026449840813472073      -0.15650520612538382     0.19151111077974453
1.3257190484061335E-17    -0.21450635094610965     0.12500000000000003
0.03563577412715172       -0.21155348651417194     0.12500000000000003
1.507552078127372E-17     -0.24420193825305198     0.043412044416732604
0.04052350715308366       -0.24084406471555692     0.043412044416732604
1.507552078127372E-17     -0.24420193825305198     -0.043412044416732576
0.04052350715308366       -0.24084406471555692     -0.043412044416732576
1.325719048406134E-17     -0.2145063509461097      -0.12499999999999993
0.03563577412715173       -0.211553486514172       -0.12499999999999993
9.839847359177484E-18     -0.15869690242163487     -0.19151111077974448
0.02644984081347208       -0.15650520612538385     -0.19151111077974448
5.235673422096242E-18     -0.08350503583141722     -0.23492315519647708
0.014073666339611594      -0.08233885859017316     -0.23492315519647708
1.874699728327322E-33     0.0019999999999999693    -0.25
0.02776343974878861       -0.07887213714158492     0.23492315519647708
0.05217819891914166       -0.1499899009982667      0.19151111077974453
0.07029949723164475       -0.202775439662519       0.12500000000000003
0.07994163866793026       -0.2308620381398516      0.043412044416732604
0.07994163866793026       -0.2308620381398516      -0.043412044416732576
0.07029949723164476       -0.20277543966251907     -0.12499999999999993
0.05217819891914167       -0.14998990099826673     -0.19151111077974448
0.02776343974878862       -0.07887213714158496     -0.23492315519647708
0.040695898895504574      -0.07319943460970171     0.23492315519647708
0.0764832717767101        -0.1393287075800183      0.19151111077974453
0.10304563330877065       -0.18841165262660362     0.12500000000000003
0.11717917067221466       -0.21452814218972        0.043412044416732604
0.11717917067221466       -0.21452814218972        -0.043412044416732576
0.10304563330877067       -0.18841165262660367     -0.12499999999999993
0.07648327177671012       -0.13932870758001833     -0.19151111077974448
0.040695898895504595      -0.07319943460970176     -0.23492315519647708
0.052518280006642         -0.06547548753196143     0.23492315519647708
0.0987020803572192        -0.12481243543543147     0.19151111077974453
0.13298095312915126       -0.16885393207316732     0.12500000000000003
0.1512203603638612        -0.19228792296739286     0.043412044416732604
0.1512203603638612        -0.19228792296739286     -0.043412044416732576
0.13298095312915129       -0.16885393207316737     -0.12499999999999993
0.09870208035721922       -0.1248124354354315      -0.19151111077974448
0.05251828000664203       -0.06547548753196147     -0.23492315519647708
0.06290809934413649       -0.05591098504981753     0.23492315519647708
0.11822855348270382       -0.1068370506275132      0.19151111077974453
0.15928889920364125       -0.1446357616357354      0.12500000000000003
0.18113665282684027       -0.1647480356773307      0.043412044416732604
0.18113665282684027       -0.1647480356773307      -0.043412044416732576
0.15928889920364128       -0.14463576163573544     -0.12499999999999993
0.11822855348270384       -0.10683705062751322     -0.19151111077974448
0.06290809934413652       -0.055910985049817556    -0.23492315519647708
0.07158194972069884       -0.04476682185818573     0.23492315519647708
0.13453005986801725       -0.08589287479549253     0.19151111077974453
0.1812518593430257        -0.11641774987178241     0.12500000000000003
0.20611200958871606       -0.13265969665367824     0.043412044416732604
0.20611200958871606       -0.13265969665367824     -0.043412044416732576
0.18125185934302576       -0.11641774987178244     -0.12499999999999993
0.13453005986801728       -0.08589287479549254     -0.19151111077974448
0.07158194972069888       -0.04476682185818576     -0.23492315519647708
0.07830323110909679       -0.0323469816782685      0.23492315519647708
0.14716193691382368       -0.06255121045867541     0.19151111077974453
0.19827074124786617       -0.08496961058336236     0.12500000000000003
0.22546516802292044       -0.0968981921369439      0.043412044416732604
0.22546516802292044       -0.0968981921369439      -0.043412044416732576
0.19827074124786623       -0.08496961058336239     -0.12499999999999993
0.1471619369138237        -0.06255121045867543     -0.19151111077974448
0.07830323110909683       -0.032346981678268515    -0.23492315519647708
0.0828886044741278        -0.018990245374066933    0.23492315519647708
0.15577961994315945       -0.0374487573729925      0.19151111077974453
0.2098813141847127        -0.051149167031082556    0.12500000000000003
0.23866822441728722       -0.058439002747059425    0.043412044416732604
0.23866822441728722       -0.058439002747059425    -0.043412044416732576
0.20988131418471276       -0.05114916703108257     -0.12499999999999993
0.15577961994315948       -0.037448757372992504    -0.19151111077974448
0.08288860447412784       -0.018990245374066947    -0.23492315519647708
0.08521299278357002       -0.005060949893546753    0.23492315519647708
0.16014804102760724       -0.01127024502140986     0.19151111077974453
0.2157668719903528        -0.01587895275173281     0.12500000000000003
0.24536103381117721       -0.018331194914956613    0.043412044416732604
0.24536103381117721       -0.018331194914956613    -0.043412044416732576
0.21576687199035285       -0.015878952751732817    -0.12499999999999993
0.16014804102760727       -0.011270245021409863    -0.19151111077974448
0.08521299278357006       -0.005060949893546757    -0.23492315519647708
0.08521299278357002       0.009060949893546753     0.23492315519647708
0.16014804102760724       0.01527024502140986      0.19151111077974453
0.2157668719903528        0.019878952751732813     0.12500000000000003
0.24536103381117721       0.02233119491495661      0.043412044416732604
0.24536103381117721       0.02233119491495661      -0.043412044416732576
0.21576687199035285       0.01987895275173282      -0.12499999999999993
0.16014804102760727       0.015270245021409863     -0.19151111077974448
0.08521299278357006       0.009060949893546756     -0.23492315519647708
0.0828886044741278        0.022990245374066916     0.23492315519647708
0.15577961994315945       0.041448757372992466     0.19151111077974453
0.2098813141847127        0.05514916703108251      0.12500000000000003
0.23866822441728722       0.06243900274705937      0.043412044416732604
0.23866822441728722       0.06243900274705937      -0.043412044416732576
0.20988131418471276       0.055149167031082524     -0.12499999999999993
0.15577961994315948       0.04144875737299247      -0.19151111077974448
0.08288860447412784       0.022990245374066923     -0.23492315519647708