% Model:              loudspeaker_radiation_BEM_60.mph
% Version:            COMSOL 6.1.0.357
% Date:               Nov 6 2023, 10:28
% Dimension:          3
% Nodes:              1682
% Elements:           3304
% Expressions:        1
% Description:        Radiation pattern
% Coordinates
0                         0.002                    1
6.6203804919917E-18       -0.10611901842394177     0.9941379571543596
0.005754329302323768      -0.10596578087170526     0.9941379571543596
1.3163143075786403E-17    -0.21297044021102404     0.9766205557100865
0.011441194354811243      -0.21266576167674456     0.9766205557100865
1.9551579842194003E-17    -0.31730153013598        0.9476531711828023
0.016993921864272316      -0.31684898269690176     0.9476531711828023
2.5710792211131797E-17    -0.4178891015602646      0.907575419670957
0.022347411177565727      -0.4172939909213427      0.907575419670957
3.156856904899557E-17     -0.5135538571770217      0.8568571761675893
0.027438897527235072      -0.5128231604663827      0.8568571761675893
3.70562332781778E-17      -0.6031742151937651      0.7960930657056438
0.03220868789102084       -0.6023164991622588      0.7960930657056438
4.210944705301058E-17     -0.6856994588534232      0.725995491923131
0.03660086083796856       -0.6847247794373018      0.725995491923131
4.666896606218143E-17     -0.7601620551276365      0.6473862847818277
0.0405639221560773        -0.759081839551896       0.6473862847818277
5.068133411411577E-17     -0.8256889981568905      0.5611870653623825
0.04405140857485374       -0.8245159109615061      0.5611870653623825
5.40995098619478E-17      -0.8815120444460229      0.46840844069979015
0.047022432504676984      -0.8802598390057967      0.46840844069979015
5.688341832030205E-17     -0.9269767198167913      0.37013815533991457
0.04944216140640292       -0.9256600770956075      0.37013815533991457
5.900042070785613E-17     -0.9615499925192229      0.2675283385292208
0.05128222617103805       -0.9601843489491694      0.2675283385292208
6.042569710720968E-17     -0.9848265225415263      0.16178199655276462
0.0525210537216043        -0.9834278890448421      0.16178199655276462
6.114253745572291E-17     -0.9965334138511238      0.05413890858541761
0.05314411993774209       -0.995118188126775       0.05413890858541761
6.114253745572291E-17     -0.9965334138511238      -0.05413890858541726
0.05314411993774209       -0.995118188126775       -0.05413890858541726
6.042569710720968E-17     -0.9848265225415263      -0.16178199655276473
0.0525210537216043        -0.9834278890448421      -0.16178199655276473
5.900042070785613E-17     -0.9615499925192229      -0.26752833852922087
0.05128222617103805       -0.9601843489491694      -0.26752833852922087
5.688341832030207E-17     -0.9269767198167915      -0.37013815533991423
0.049442161406402924      -0.9256600770956077      -0.37013815533991423
5.409950986194781E-17     -0.881512044446023       -0.46840844069979004
0.04702243250467699       -0.8802598390057969      -0.46840844069979004
5.068133411411577E-17     -0.8256889981568905      -0.5611870653623824
0.04405140857485374       -0.8245159109615061      -0.5611870653623824
4.666896606218143E-17     -0.7601620551276365      -0.6473862847818276
0.0405639221560773        -0.759081839551896       -0.6473862847818276
4.21094470530106E-17      -0.6856994588534235      -0.7259954919231306
0.036600860837968575      -0.6847247794373021      -0.7259954919231306
3.705623327817782E-17     -0.6031742151937655      -0.7960930657056434
0.03220868789102086       -0.6023164991622592      -0.7960930657056434
3.1568569048995564E-17    -0.5135538571770216      -0.8568571761675893
0.02743889752723507       -0.5128231604663825      -0.8568571761675893
2.5710792211131788E-17    -0.41788910156026443     -0.9075754196709571
0.02234741117756572       -0.4172939909213425      -0.9075754196709571
1.9551579842193988E-17    -0.3173015301359798      -0.9476531711828026
0.016993921864272305      -0.31684898269690154     -0.9476531711828026
1.3163143075786415E-17    -0.21297044021102424     -0.9766205557100865
0.011441194354811253      -0.21266576167674475     -0.9766205557100865
6.62038049199171E-18      -0.10611901842394193     -0.9941379571543596
0.005754329302323777      -0.10596578087170543     -0.9941379571543596
7.498798913309288E-33     0.0019999999999998777    -1
0.011492347333052492      -0.10550650258348626     0.9941379571543596
0.02284995740117831       -0.21175258971831382     0.9766205557100865
0.033939672610690606      -0.31549262317455073     0.9476531711828023
0.044631476190181145      -0.41551034591033964     0.907575419670957
0.05480001651828964       -0.5106331415736794      0.8568571761675893
0.0643260767568541        -0.5997457823570189      0.7960930657056438
0.07309797255933731       -0.681803504023638       0.725995491923131
0.08101286146767596       -0.7558442548130859      0.6473862847818277
0.0879779486460717        -0.8209999746184602      0.5611870653623825
0.09391157481559782       -0.876506772197486       0.46840844069979015
0.09874417363458271       -0.9217138810988977      0.37013815533991457
0.10241908730036108       -0.9560912893040806      0.2675283385292208
0.10489323081020725       -0.9792359531333928      0.16178199655276462
0.10613759709359923       -0.9908765225648033      0.05413890858541761
0.10613759709359923       -0.9908765225648033      -0.05413890858541726
0.10489323081020725       -0.9792359531333928      -0.16178199655276473
0.10241908730036108       -0.9560912893040806      -0.26752833852922087
0.09874417363458274       -0.921713881098898       -0.37013815533991423
0.09391157481559782       -0.8765067721974861      -0.46840844069979004
0.0879779486460717        -0.8209999746184602      -0.5611870653623824
0.08101286146767596       -0.7558442548130859      -0.6473862847818276
0.07309797255933734       -0.6818035040236383      -0.7259954919231306
0.06432607675685414       -0.5997457823570193      -0.7960930657056434
0.054800016518289626      -0.5106331415736793      -0.8568571761675893
0.04463147619018113       -0.4155103459103395      -0.9075754196709571
0.033939672610690585      -0.3154926231745505      -0.9476531711828026
0.02284995740117833       -0.211752589718314       -0.9766205557100865
0.01149234733305251       -0.10550650258348643     -0.9941379571543596
0.017197789056662638      -0.10474248543349172     0.9941379571543596
0.03419394976072439       -0.21023351282086086     0.9766205557100865
0.05078921766766807       -0.3132362963173568      0.9476531711828023
0.06678902843448288       -0.412543222462826       0.907575419670957
0.08200579890869443       -0.5069900083454013      0.8568571761675893
0.09626112636931851       -0.5954693517541294      0.7960930657056438
0.10938788013564948       -0.6769439132849782      0.725995491923131
0.12123216102168258       -0.7504584781969004      0.6473862847818277
0.13165510566335828       -0.8151511554313112      0.5611870653623825
0.14053451456454216       -0.8702634824967165      0.46840844069979015
0.1477662847743888        -0.915149317747955       0.37013815533991457
0.1532656303992583        -0.9492824158062171      0.2675283385292208
0.15696807663979878       -0.9722625973049585      0.16178199655276462
0.15883021569901865       -0.9838204406270864      0.05413890858541761
0.15883021569901865       -0.9838204406270864      -0.05413890858541726
0.15696807663979878       -0.9722625973049585      -0.16178199655276473
0.1532656303992583        -0.9492824158062171      -0.26752833852922087
0.14776628477438883       -0.9151493177479553      -0.37013815533991423
0.1405345145645422        -0.8702634824967166      -0.46840844069979004
0.13165510566335828       -0.8151511554313112      -0.5611870653623824
0.12123216102168258       -0.7504584781969004      -0.6473862847818276
0.10938788013564954       -0.6769439132849785      -0.7259954919231306
0.09626112636931856       -0.5954693517541297      -0.7960930657056434
0.08200579890869442       -0.5069900083454012      -0.8568571761675893
0.06678902843448287       -0.4125432224628258      -0.9075754196709571
0.050789217667668037      -0.31323629631735656     -0.9476531711828026
0.03419394976072442       -0.21023351282086106     -0.9766205557100865
0.017197789056662666      -0.10474248543349189     -0.9941379571543596
0.022854481778712493      -0.10367589511134107     0.9941379571543596
0.04544101565462154       -0.20811283697289393     0.9766205557100865
0.067494795169097         -0.31008639792893855     0.9476531711828023
0.08875725992129449       -0.4084010312125811      0.907575419670957
0.10897912695245145       -0.5019040876384974      0.8568571761675893
0.1279233133606569        -0.5894993293607531      0.7960930657056438
0.14536771588110944       -0.6701597822592483      0.725995491923131
0.1611078148438261        -0.7429397762723037      0.6473862847818277
0.17495907197977875       -0.8069860325134988      0.5611870653623825
0.18675909396337353       -0.8615476671864565      0.46840844069979015
0.19636953632571572       -0.9059849950108144      0.37013815533991457
0.20367772541701817       -0.9397770289472686      0.2675283385292208
0.20859797940212638       -0.9625275882942652      0.16178199655276462
0.21107261280169595       -0.9739699435444952      0.05413890858541761
0.21107261280169595       -0.9739699435444952      -0.05413890858541726
0.20859797940212638       -0.9625275882942652      -0.16178199655276473
0.20367772541701817       -0.9397770289472686      -0.26752833852922087
0.19636953632571574       -0.9059849950108146      -0.37013815533991423
0.18675909396337356       -0.8615476671864566      -0.46840844069979004
0.17495907197977875       -0.8069860325134988      -0.5611870653623824
0.1611078148438261        -0.7429397762723037      -0.6473862847818276
0.1453677158811095        -0.6701597822592487      -0.7259954919231306
0.12792331336065696       -0.5894993293607534      -0.7960930657056434
0.10897912695245142       -0.5019040876384973      -0.8568571761675893
0.08875725992129445       -0.4084010312125809      -0.9075754196709571
0.06749479516909694       -0.31008639792893833     -0.9476531711828026
0.04544101565462158       -0.20811283697289412     -0.9766205557100865
0.022854481778712528      -0.10367589511134123     -0.9941379571543596
0.028446390989101688      -0.10230975498318368     0.9941379571543596
0.05655927405263946       -0.205396573460508       0.9766205557100865
0.08400905134054748       -0.3060518567385034      0.9476531711828023
0.1104738993116957        -0.4030955136507383      0.907575419670957
0.13564354182066365       -0.4953897960477786      0.8568571761675893
0.15922288782185734       -0.581852637853986       0.7960930657056438
0.18093549104221435       -0.661470341302913       0.725995491923131
0.20052679106099852       -0.7333094616167815      0.6473862847818277
0.21776709779798595       -0.796527750793045       0.5611870653623825
0.23245428441964833       -0.8503840321921454      0.46840844069979015
0.2444161570914693        -0.8942468901559454      0.37013815533991457
0.2535124737932164        -0.9276020727790134      0.2675283385292208
0.2596365885284033        -0.9500585210420281      0.16178199655276462
0.26271670165109134       -0.9613529536212317      0.05413890858541761
0.26271670165109134       -0.9613529536212317      -0.05413890858541726
0.2596365885284033        -0.9500585210420281      -0.16178199655276473
0.2535124737932164        -0.9276020727790134      -0.26752833852922087
0.24441615709146935       -0.8942468901559456      -0.37013815533991423
0.23245428441964835       -0.8503840321921455      -0.46840844069979004
0.21776709779798595       -0.796527750793045       -0.5611870653623824
0.20052679106099852       -0.7333094616167815      -0.6473862847818276
0.18093549104221446       -0.6614703413029133      -0.7259954919231306
0.15922288782185742       -0.5818526378539863      -0.7960930657056434
0.13564354182066363       -0.4953897960477785      -0.8568571761675893
0.11047389931169564       -0.40309551365073815     -0.9075754196709571
0.08400905134054742       -0.30605185673850316     -0.9476531711828026
0.05655927405263951       -0.20539657346050816     -0.9766205557100865
0.028446390989101733      -0.10230975498318384     -0.9941379571543596
0.033957665813632125      -0.10064793752163917     0.9941379571543596
0.06751720904338934       -0.20209242182774137     0.9766205557100865
0.10028517472868577       -0.30114410909139416     0.9476531711828023
0.131877388431898         -0.39664170884325245     0.907575419670957
0.16192346033239233       -0.48746559904051384     0.8568571761675893
0.19007112770852097       -0.5725509526116901      0.7960930657056438
0.21599038489595657       -0.6509002215804399      0.725995491923131
0.23937735230237928       -0.7215948324035246      0.6473862847818277
0.2599578391178569        -0.7838059554057423      0.5611870653623825
0.2774905579513967        -0.8368042220500643      0.46840844069979015
0.29176995370499287       -0.8799682761168631      0.37013815533991457
0.3026286135192108        -0.9127920585374769      0.2675283385292208
0.30993922953589603       -0.9348907404740942      0.16178199655276462
0.3136160914664127        -0.9460052350860254      0.05413890858541761
0.3136160914664127        -0.9460052350860254      -0.05413890858541726
0.30993922953589603       -0.9348907404740942      -0.16178199655276473
0.3026286135192108        -0.9127920585374769      -0.26752833852922087
0.291769953704993         -0.8799682761168633      -0.37013815533991423
0.2774905579513967        -0.8368042220500644      -0.46840844069979004
0.2599578391178569        -0.7838059554057423      -0.5611870653623824
0.23937735230237928       -0.7215948324035246      -0.6473862847818276
0.21599038489595668       -0.6509002215804403      -0.7259954919231306
0.19007112770852108       -0.5725509526116904      -0.7960930657056434
0.1619234603323923        -0.48746559904051373     -0.8568571761675893
0.13187738843189795       -0.39664170884325234     -0.9075754196709571
0.1002851747286857        -0.301144109091394       -0.9476531711828026
0.0675172090433894        -0.20209242182774156     -0.9766205557100865
0.033957665813632174      -0.10064793752163932     -0.9941379571543596
0.03937268394503312       -0.09869515332885288     0.9941379571543596
0.07828375916959895       -0.19820974805138158     0.9766205557100865
0.11627702889342484       -0.29537706653152623     0.9476531711828023
0.15290705676657665       -0.3890579108010335      0.907575419670957
0.1877443892033956        -0.47815395861405624     0.8568571761675893
0.22038059033313676       -0.5616206402712801      0.7960930657056438
0.2504330305371172        -0.6384793852445889      0.725995491923131
0.2775493724311533        -0.7078290950217914      0.6473862847818277
0.30141170169924536       -0.7688567076627939      0.5611870653623825
0.32174025434826076       -0.8208467302074596      0.46840844069979015
0.3382966966849626        -0.8631896271763825      0.37013815533991457
0.35088691956065277       -0.8953889668170824      0.2675283385292208
0.35936331412346434       -0.9170672413124089      0.16178199655276462
0.3636265023971897        -0.9279702927145396      0.05413890858541761
0.3636265023971897        -0.9279702927145396      -0.05413890858541726
0.35936331412346434       -0.9170672413124089      -0.16178199655276473
0.35088691956065277       -0.8953889668170824      -0.26752833852922087
0.3382966966849627        -0.8631896271763826      -0.37013815533991423
0.3217402543482608        -0.8208467302074597      -0.46840844069979004
0.30141170169924536       -0.7688567076627939      -0.5611870653623824
0.2775493724311533        -0.7078290950217914      -0.6473862847818276
0.2504330305371173        -0.6384793852445891      -0.7259954919231306
0.22038059033313687       -0.5616206402712804      -0.7960930657056434
0.18774438920339556       -0.47815395861405613     -0.8568571761675893
0.1529070567665766        -0.3890579108010334      -0.9075754196709571
0.11627702889342476       -0.29537706653152607     -0.9476531711828026
0.07828375916959902       -0.19820974805138178     -0.9766205557100865
0.03937268394503318       -0.09869515332885304     -0.9941379571543596
0.04467609592608854       -0.09645693778378238     0.9941379571543596
0.08882840547518772       -0.19375955799208655     0.9766205557100865
0.131939283186676         -0.28876707636760435     0.9476531711828023
0.17350329343603751       -0.3803656166235851      0.907575419670957
0.21303313620543546       -0.4674812696248715      0.8568571761675893
0.2500653602308786        -0.5490926839906246      0.7960930657056438
0.28416579654455393       -0.6242430405054337      0.725995491923131
0.3149346487090099        -0.692051269949789       0.6473862847818277
0.34201118006484793       -0.7517223828311106      0.5611870653623825
0.3650779430382297        -0.802556789908684       0.46840844069979015
0.38386450092343466       -0.843958504237866       0.37013815533991457
0.3981505985059726        -0.8754421285720958      0.2675283385292208
0.40776874435359184       -0.8966385462018066      0.16178199655276462
0.4126061745001835        -0.9072992485103591      0.05413890858541761
0.4126061745001835        -0.9072992485103591      -0.05413890858541726
0.40776874435359184       -0.8966385462018066      -0.16178199655276473
0.3981505985059726        -0.8754421285720958      -0.26752833852922087
0.38386450092343477       -0.8439585042378662      -0.37013815533991423
0.36507794303822977       -0.8025567899086841      -0.46840844069979004
0.34201118006484793       -0.7517223828311106      -0.5611870653623824
0.3149346487090099        -0.692051269949789       -0.6473862847818276
0.28416579654455404       -0.624243040505434       -0.7259954919231306
0.2500653602308787        -0.5490926839906249      -0.7960930657056434
0.2130331362054354        -0.4674812696248714      -0.8568571761675893
0.17350329343603743       -0.3803656166235849      -0.9075754196709571
0.13193928318667592       -0.2887670763676041      -0.9476531711828026
0.0888284054751878        -0.19375955799208675     -0.9766205557100865
0.04467609592608861       -0.09645693778378253     -0.9941379571543596
0.04985286865934106       -0.09393963535156441     0.9941379571543596
0.09912125801456383       -0.18875446619707684     0.9766205557100865
0.14722754124699633       -0.28133287533490026     0.9476531711828023
0.19360771616973246       -0.3705894655631403      0.907575419670957
0.23771801763760145       -0.4554777849694496      0.8568571761675893
0.2790412926963258        -0.5350025956229196      0.7960930657056438
0.31709306372807267       -0.6082315418288664      0.725995491923131
0.3514272085085609        -0.6743060811468893      0.6473862847818277
0.3816411905822471        -0.7324515500160116      0.5611870653623825
0.4073807786342247        -0.7819862459766523      0.46840844069979015
0.4283441995285139        -0.822329420008677       0.37013815533991457
0.44428567632216776       -0.8530080852826765      0.2675283385292208
0.4550183097752119        -0.8736625624980839      0.16178199655276462
0.46041626957334963       -0.8840506967941171      0.05413890858541761
0.46041626957334963       -0.8840506967941171      -0.05413890858541726
0.4550183097752119        -0.8736625624980839      -0.16178199655276473
0.44428567632216776       -0.8530080852826765      -0.26752833852922087
0.428344199528514         -0.8223294200086773      -0.37013815533991423
0.4073807786342248        -0.7819862459766524      -0.46840844069979004
0.3816411905822471        -0.7324515500160116      -0.5611870653623824
0.3514272085085609        -0.6743060811468893      -0.6473862847818276
0.31709306372807283       -0.6082315418288667      -0.7259954919231306
0.27904129269632594       -0.53500259562292        -0.7960930657056434
0.2377180176376014        -0.45547778496944946     -0.8568571761675893
0.19360771616973238       -0.37058946556314015     -0.9075754196709571
0.14722754124699625       -0.2813328753349001      -0.9476531711828026
0.09912125801456392       -0.188754466197077       -0.9766205557100865
0.04985286865934114       -0.09393963535156456     -0.9941379571543596
0.054888328020040185      -0.09115038159943914     0.9941379571543596
0.10913314057892227       -0.18320866014283094     0.9766205557100865
0.16209846684589854       -0.2730955364839409      0.9476531711828023
0.21316333679714822       -0.35975716918202433     0.907575419670957
0.26172906152154873       -0.44217752982918246     0.8568571761675893
0.30722625230077216       -0.5193903150544819      0.7960930657056438
0.34912149617141025       -0.5904902755474786      0.725995491923131
0.38692360970426665       -0.6546438292787062      0.6473862847818277
0.42018939768097047       -0.7110988344868194      0.5611870653623825
0.44852884915269503       -0.7591934078530569      0.46840844069979015
0.4716097099619417        -0.7983636844779868      0.37013815533991457
0.4891613781187546        -0.8281504286819078      0.2675283385292208
0.5009780763616383        -0.8482044181233087      0.16178199655276462
0.506921264707805         -0.8582905381115262      0.05413890858541761
0.506921264707805         -0.8582905381115262      -0.05413890858541726
0.5009780763616383        -0.8482044181233087      -0.16178199655276473
0.4891613781187546        -0.8281504286819078      -0.26752833852922087
0.4716097099619418        -0.798363684477987       -0.37013815533991423
0.4485288491526951        -0.759193407853057       -0.46840844069979004
0.42018939768097047       -0.7110988344868194      -0.5611870653623824
0.38692360970426665       -0.6546438292787062      -0.6473862847818276
0.3491214961714104        -0.5904902755474789      -0.7259954919231306
0.30722625230077233       -0.5193903150544821      -0.7960930657056434
0.2617290615215487        -0.44217752982918235     -0.8568571761675893
0.2131633367971481        -0.35975716918202416     -0.9075754196709571
0.16209846684589843       -0.27309553648394075     -0.9476531711828026
0.10913314057892237       -0.1832086601428311      -0.9766205557100865
0.05488832802004027       -0.09115038159943929     -0.9941379571543596
0.05976820045154308       -0.08809708297020956     0.9941379571543596
0.11883567339937862       -0.17713786001914192     0.9766205557100865
0.1765099067290988        -0.2640784094466572      0.9476531711828023
0.23211472278696704       -0.3478994328012202      0.907575419670957
0.284998205944673         -0.42761820522229116     0.8568571761675893
0.3345403457140223        -0.5023000969908017      0.7960930657056438
0.3801603058030297        -0.5710695312080708      0.725995491923131
0.42132323389037896       -0.6331202491343946      0.6473862847818277
0.45754653227986974       -0.6877247628355989      0.5611870653623825
0.4884055159171631        -0.7342428843139205      0.46840844069979015
0.5135383914337494        -0.7721292311269498      0.37013815533991457
0.5326504988434039        -0.8009396204981216      0.2675283385292208
0.5455177661611149        -0.8203362769536491      0.16178199655276462
0.5519893364422368        -0.8300917924311229      0.05413890858541761
0.5519893364422368        -0.8300917924311229      -0.05413890858541726
0.5455177661611149        -0.8203362769536491      -0.16178199655276473
0.5326504988434039        -0.8009396204981216      -0.26752833852922087
0.5135383914337495        -0.77212923112695        -0.37013815533991423
0.48840551591716314       -0.7342428843139206      -0.46840844069979004
0.45754653227986974       -0.6877247628355989      -0.5611870653623824
0.42132323389037896       -0.6331202491343946      -0.6473862847818276
0.3801603058030299        -0.5710695312080711      -0.7259954919231306
0.33454034571402247       -0.5023000969908019      -0.7960930657056434
0.28499820594467296       -0.42761820522229105     -0.8568571761675893
0.23211472278696696       -0.3478994328012201      -0.9075754196709571
0.1765099067290987        -0.26407840944665706     -0.9476531711828026
0.11883567339937871       -0.17713786001914206     -0.9766205557100865
0.05976820045154318       -0.0880970829702097      -0.9941379571543596
0.06447865342526173       -0.08478839437057033     0.9941379571543596
0.12820135359250726       -0.1705592741685314      0.9766205557100865
0.1904210101044961        -0.2543070542493155      0.9476531711828023
0.2504081543765996        -0.33504986846280077     0.907575419670957
0.3074594919889963        -0.4118410811361932      0.8568571761675893
0.36090614817071637       -0.4837803855117727      0.7960930657056438
0.41012150974477285       -0.5500243590204686      0.725995491923131
0.45452857159474425       -0.6097963516403345      0.6473862847818277
0.4936067015222033        -0.6623955914079559      0.5611870653623825
0.5268977441832258        -0.7072054003290015      0.46840844069979015
0.5540113925409014        -0.7437004243638705      0.37013815533991457
0.5746297638584817        -0.7714527927234732      0.2675283385292208
0.588511126583825         -0.7901371342630256      0.16178199655276462
0.595492734430827         -0.7995343921612325      0.05413890858541761
0.595492734430827         -0.7995343921612325      -0.05413890858541726
0.588511126583825         -0.7901371342630256      -0.16178199655276473
0.5746297638584817        -0.7714527927234732      -0.26752833852922087
0.5540113925409015        -0.7437004243638706      -0.37013815533991423
0.5268977441832259        -0.7072054003290016      -0.46840844069979004
0.4936067015222033        -0.6623955914079559      -0.5611870653623824
0.45452857159474425       -0.6097963516403345      -0.6473862847818276
0.410121509744773         -0.550024359020469       -0.7259954919231306
0.36090614817071653       -0.48378038551177294     -0.7960930657056434
0.3074594919889962        -0.4118410811361931      -0.8568571761675893
0.25040815437659947       -0.3350498684628006      -0.9075754196709571
0.19042101010449597       -0.25430705424931527     -0.9476531711828026
0.12820135359250737       -0.17055927416853156     -0.9766205557100865
0.06447865342526182       -0.08478839437057047     -0.9941379571543596
0.06900633465046799       -0.0812336946378345      0.9941379571543596
0.13720363312025266       -0.16349155030733312     0.9766205557100865
0.2037923444381805        -0.24380916885984572     0.9476531711828023
0.26799177684668807       -0.32124489965294295     0.907575419670957
0.32904925069888646       -0.39489087954323954     0.8568571761675893
0.38624892293923935       -0.46388367675168346     0.7960930657056438
0.4389201797088877        -0.5274144138117216      0.725995491923131
0.48644549867999676       -0.5847382509180321      0.6473862847818277
0.5282676889404436        -0.6351831184922272      0.5611870653623825
0.563896423547818         -0.6781575965841822      0.46840844069979015
0.5929139881645108        -0.7131578487302083      0.37013815533991457
0.614980178376404         -0.7397735289749297      0.2675283385292208
0.6298362882785732        -0.7576925928024253      0.16178199655276462
0.6373081435654859        -0.7667049555728737      0.05413890858541761
0.6373081435654859        -0.7667049555728737      -0.05413890858541726
0.6298362882785732        -0.7576925928024253      -0.16178199655276473
0.614980178376404         -0.7397735289749297      -0.26752833852922087
0.5929139881645109        -0.7131578487302085      -0.37013815533991423
0.563896423547818         -0.6781575965841822      -0.46840844069979004
0.5282676889404436        -0.6351831184922272      -0.5611870653623824
0.48644549867999676       -0.5847382509180321      -0.6473862847818276
0.4389201797088879        -0.5274144138117219      -0.7259954919231306
0.38624892293923957       -0.4638836767516837      -0.7960930657056434
0.32904925069888635       -0.3948908795432395      -0.8568571761675893
0.26799177684668796       -0.3212448996529428      -0.9075754196709571
0.20379234443818037       -0.24380916885984555     -0.9476531711828026
0.1372036331202528        -0.16349155030733326     -0.9766205557100865
0.06900633465046808       -0.08123369463783463     -0.9941379571543596
0.0733384099228124        -0.07744305995460013     0.9941379571543596
0.14581699404322745       -0.15595472266671495     0.9766205557100865
0.2165860072302348        -0.23261451067494276     0.9476531711828023
0.28481574750894245       -0.3065236580555996      0.907575419670957
0.34970628355762906       -0.37681564763142517     0.8568571761675893
0.4104968331711067        -0.44266637009322185     0.7960930657056438
0.4664746827364869        -0.5033037859280148      0.725995491923131
0.5169835431486516        -0.5580169768764592      0.6473862847818277
0.5614312441999594        -0.606164480799432       0.5611870653623825
0.5992966772345046        -0.647181812235119       0.46840844069979015
0.6301359046706525        -0.6805880804749403      0.37013815533991457
0.653587364763289         -0.7059916275674267      0.2675283385292208
0.6693761105847025        -0.7230946201496034      0.16178199655276462
0.6773170335259244        -0.7316965412708591      0.05413890858541761
0.6773170335259244        -0.7316965412708591      -0.05413890858541726
0.6693761105847025        -0.7230946201496034      -0.16178199655276473
0.653587364763289         -0.7059916275674267      -0.26752833852922087
0.6301359046706526        -0.6805880804749405      -0.37013815533991423
0.5992966772345046        -0.6471818122351191      -0.46840844069979004
0.5614312441999594        -0.606164480799432       -0.5611870653623824
0.5169835431486516        -0.5580169768764592      -0.6473862847818276
0.4664746827364871        -0.5033037859280151      -0.7259954919231306
0.4104968331711069        -0.44266637009322213     -0.7960930657056434
0.349706283557629         -0.37681564763142505     -0.8568571761675893
0.28481574750894234       -0.3065236580555995      -0.9075754196709571
0.21658600723023463       -0.2326145106749426      -0.9476531711828026