% Model:              loudspeaker_radiation_BEM_60.mph
% Version:            COMSOL 6.1.0.357
% Date:               Nov 7 2023, 10:21
% Dimension:          3
% Nodes:              1682
% Elements:           3360
% Expressions:        1
% Description:        Radiation pattern
% Coordinates
0                         0.002                    0.25
0.027029754605985442      0.002                    0.2485344892885899
0.02688168278208396       0.004825378711465436     0.2485344892885899
0.05374261005275601       0.002                    0.24415513892752164
0.053448202411704934      0.00761763244080733      0.24415513892752164
0.079825382533995         0.002                    0.2369132927957006
0.07938809073620617       0.010344024566031082     0.2369132927957006
0.10497227539006615       0.002                    0.22689385491773925
0.10439722628204895       0.012972590632232533     0.22689385491773925
0.12888846429425543       0.002                    0.21421429404189732
0.12818239980102894       0.015472513105606343     0.21421429404189732
0.15129355379844128       0.002                    0.19902326642641094
0.15046475188062766       0.017814482680853123     0.19902326642641094
0.1719248647133558        0.002                    0.18149887298078274
0.1709830423156606        0.019971041905986302     0.18149887298078274
0.19054051378190912       0.002                    0.16184657119545692
0.18949671291082887       0.021916907095852103     0.16184657119545692
0.2069222495392226        0.002                    0.14029676634059562
0.2057887078056145        0.023629264760220856     0.14029676634059562
0.22087801111150573       0.002                    0.11710211017494754
0.21966801825578924       0.02508803907110138      0.11710211017494754
0.23224417995419783       0.002                    0.09253453883497864
0.23097192203629918       0.026276127233468664     0.09253453883497864
0.24088749812980573       0.002                    0.0668820846323052
0.2395678912105758        0.027179599999898336     0.0668820846323052
0.24670663063538156       0.002                    0.040445499138191156
0.24535514589942023       0.027787864978257033     0.040445499138191156
0.24963335346278095       0.002                    0.013534727146354402
0.24826583583294304       0.028093790817815448     0.013534727146354402
0.24963335346278095       0.002                    -0.013534727146354316
0.24826583583294304       0.028093790817815448     -0.013534727146354316
0.24670663063538156       0.002                    -0.040445499138191184
0.24535514589942023       0.027787864978257033     -0.040445499138191184
0.24088749812980573       0.002                    -0.06688208463230522
0.2395678912105758        0.027179599999898336     -0.06688208463230522
0.23224417995419788       0.002                    -0.09253453883497856
0.23097192203629924       0.02627612723346867      -0.09253453883497856
0.22087801111150576       0.002                    -0.11710211017494751
0.21966801825578927       0.02508803907110138      -0.11710211017494751
0.2069222495392226        0.002                    -0.1402967663405956
0.2057887078056145        0.023629264760220856     -0.1402967663405956
0.19054051378190912       0.002                    -0.1618465711954569
0.18949671291082887       0.021916907095852103     -0.1618465711954569
0.17192486471335588       0.002                    -0.18149887298078266
0.1709830423156607        0.01997104190598631      -0.18149887298078266
0.15129355379844137       0.002                    -0.19902326642641086
0.15046475188062775       0.01781448268085313      -0.19902326642641086
0.1288884642942554        0.002                    -0.21421429404189732
0.1281823998010289        0.01547251310560634      -0.21421429404189732
0.10497227539006611       0.002                    -0.22689385491773928
0.10439722628204891       0.012972590632232528     -0.22689385491773928
0.07982538253399495       0.002                    -0.23691329279570064
0.07938809073620612       0.010344024566031076     -0.23691329279570064
0.05374261005275606       0.002                    -0.24415513892752164
0.05344820241170498       0.007617632440807335     -0.24415513892752164
0.027029754605985484      0.002                    -0.2485344892885899
0.026881682782084002      0.00482537871146544      -0.2485344892885899
3.061616997868383E-17     0.002                    -0.25
0.02643908961626819       0.007619801982519551     0.2485344892885899
0.05256820508027579       0.013173716925028011     0.24415513892752164
0.07808100640328544       0.018596630252817332     0.2369132927957006
0.1026783793163615        0.02382496326533612      0.22689385491773925
0.12607194211169073       0.028797418538323044     0.21421429404189732
0.1479874266544363        0.03345569858006156      0.19902326642641094
0.1681678939258531        0.03774518931616833      0.18149887298078274
0.18637674639836102       0.0416156003896813       0.16184657119545692
0.2024005019252324        0.0450215547695141       0.14029676634059562
0.2160512966235742        0.04792312075465699      0.11710211017494754
0.22716908740658878       0.05028628013686123      0.09253453883497864
0.23562352834243855       0.052083327033027746     0.0668820846323052
0.24131549884111966       0.0532931927113546       0.040445499138191156
0.24417826575275323       0.05390169260295414      0.013534727146354402
0.24417826575275323       0.05390169260295414      -0.013534727146354316
0.24131549884111966       0.0532931927113546       -0.040445499138191184
0.23562352834243855       0.052083327033027746     -0.06688208463230522
0.22716908740658884       0.05028628013686125      -0.09253453883497856
0.21605129662357422       0.047923120754656996     -0.11710211017494751
0.2024005019252324        0.0450215547695141       -0.1402967663405956
0.18637674639836102       0.0416156003896813       -0.1618465711954569
0.16816789392585318       0.03774518931616835      -0.18149887298078266
0.14798742665443637       0.03345569858006158      -0.19902326642641086
0.1260719421116907        0.028797418538323044     -0.21421429404189732
0.10267837931636146       0.023824963265336112     -0.22689385491773928
0.07808100640328539       0.01859663025281732      -0.23691329279570064
0.05256820508027584       0.013173716925028021     -0.24415513892752164
0.02643908961626823       0.0076198019825195595    -0.2485344892885899
0.025706824251881394      0.010352653527034014     0.2485344892885899
0.05111225949338303       0.0186073798283675       0.24415513892752164
0.07591845022470928       0.02666739978548556      0.2369132927957006
0.0998345665400518        0.034438217033737506     0.22689385491773925
0.12258021384232685       0.04182872584581355      0.21421429404189732
0.14388872021345897       0.04875227926309874      0.19902326642641094
0.16351026289879975       0.055127704952040675     0.18149887298078274
0.18121479725051118       0.060880256875543805     0.16184657119545692
0.1967947537907295        0.06594249162191343      0.14029676634059562
0.21006747177391086       0.07025505911719375      0.11710211017494754
0.2208773407170641        0.07376739845052063      0.09253453883497864
0.22909762479038834       0.07643833065457334      0.0668820846323052
0.2346319486790012        0.07823654149131594      0.040445499138191156
0.23741542749538916       0.07914094858280746      0.013534727146354402
0.23741542749538916       0.07914094858280746      -0.013534727146354316
0.2346319486790012        0.07823654149131594      -0.040445499138191184
0.22909762479038834       0.07643833065457334      -0.06688208463230522
0.22087734071706416       0.07376739845052065      -0.09253453883497856
0.21006747177391089       0.07025505911719376      -0.11710211017494751
0.1967947537907295        0.06594249162191343      -0.1402967663405956
0.18121479725051118       0.060880256875543805     -0.1618465711954569
0.16351026289879983       0.055127704952040696     -0.18149887298078266
0.14388872021345903       0.04875227926309877      -0.19902326642641086
0.12258021384232683       0.04182872584581354      -0.21421429404189732
0.09983456654005175       0.03443821703373749      -0.22689385491773928
0.07591845022470922       0.026667399785485546     -0.23691329279570064
0.05111225949338308       0.018607379828367514     -0.24415513892752164
0.025706824251881435      0.010352653527034026     -0.2485344892885899
0.024692909541492173      0.012993991651601167     0.2485344892885899
0.04909631729555284       0.02385908880298973      0.24415513892752164
0.07292411561851415       0.03446790812411874      0.2369132927957006
0.09589694536100313       0.04469607090818394      0.22689385491773925
0.11774547109854762       0.05442366129824059      0.21421429404189732
0.1382135388431725        0.06353663219098599      0.19902326642641094
0.1570611792147049        0.07192814233477143      0.18149887298078274
0.17406742086235047       0.07949980894559196      0.16184657119545692
0.1890328811517456        0.08616286115527645      0.14029676634059562
0.201782103744048         0.09183918076875314      0.11710211017494754
0.21216561566108824       0.09646221812846248      0.09253453883497864
0.22006167971937457       0.09997777234824529      0.0668820846323052
0.22537772178726379       0.10234462676917647      0.040445499138191156
0.2280514161320134        0.10353503218720621      0.013534727146354402
0.2280514161320134        0.10353503218720621      -0.013534727146354316
0.22537772178726379       0.10234462676917647      -0.040445499138191184
0.22006167971937457       0.09997777234824529      -0.06688208463230522
0.21216561566108827       0.09646221812846249      -0.09253453883497856
0.20178210374404804       0.09183918076875315      -0.11710211017494751
0.1890328811517456        0.08616286115527645      -0.1402967663405956
0.17406742086235047       0.07949980894559196      -0.1618465711954569
0.15706117921470497       0.07192814233477147      -0.18149887298078266
0.13821353884317258       0.06353663219098601      -0.19902326642641086
0.11774547109854759       0.05442366129824058      -0.21421429404189732
0.09589694536100309       0.04469607090818393      -0.22689385491773928
0.0729241156185141        0.03446790812411872      -0.23691329279570064
0.04909631729555288       0.02385908880298975      -0.24415513892752164
0.02469290954149221       0.012993991651601184     -0.2485344892885899
0.023408454146842835      0.01551487730299272      0.2485344892885899
0.04654246557136766       0.028871305026378004     0.24415513892752164
0.0691308091412503        0.041912691266997495     0.2369132927957006
0.09090865718085334       0.05448613769503307      0.22689385491773925
0.11162068433358878       0.0664442321471277       0.21421429404189732
0.13102406101827782       0.07764677689922063      0.19902326642641094
0.14889130038396894       0.08796243235667789      0.18149887298078274
0.16501292538527226       0.09727025689095455      0.16184657119545692
0.17919992470918966       0.1054611247696113       0.14029676634059562
0.1912859687599455        0.11243900555575286      0.11710211017494754
0.20112935972142001       0.1181220899770989       0.09253453883497864
0.20861469283448822       0.12244374906490285      0.0668820846323052
0.2136542094123047        0.12535331531769076      0.040445499138191156
0.2161888257306684        0.12681667673139047      0.013534727146354402
0.2161888257306684        0.12681667673139047      -0.013534727146354316
0.2136542094123047        0.12535331531769076      -0.040445499138191184
0.20861469283448822       0.12244374906490285      -0.06688208463230522
0.20112935972142007       0.11812208997709893      -0.09253453883497856
0.19128596875994552       0.11243900555575287      -0.11710211017494751
0.17919992470918966       0.1054611247696113       -0.1402967663405956
0.16501292538527226       0.09727025689095455      -0.1618465711954569
0.14889130038396903       0.08796243235667793      -0.18149887298078266
0.13102406101827788       0.07764677689922067      -0.19902326642641086
0.11162068433358875       0.06644423214712769      -0.21421429404189732
0.0909086571808533        0.05448613769503305      -0.22689385491773928
0.06913080914125025       0.04191269126699747      -0.23691329279570064
0.0465424655713677        0.028871305026378025     -0.24415513892752164
0.02340845414684287       0.01551487730299274      -0.2485344892885899
0.021867530830026734      0.01788769113048279      0.2485344892885899
0.04347868485474551       0.03358911360871519      0.24415513892752164
0.06458009105248307       0.04892018261208742      0.2369132927957006
0.08492435472877058       0.06370115537386499      0.22689385491773925
0.10427295799294127       0.07775873850278833      0.21421429404189732
0.12239905616231939       0.09092811968964165      0.19902326642641094
0.13909013730871858       0.10305489998088914      0.18149887298078274
0.15415051376649835       0.11399690396523689      0.16184657119545692
0.16740361639152473       0.12362584665033803      0.14029676634059562
0.17869406467294663       0.13182883748703605      0.11710211017494754
0.18788948842761954       0.13850970390783668      0.09253453883497864
0.19488207971947621       0.14359011886233047      0.0668820846323052
0.19958985680900673       0.1470105191302437       0.040445499138191156
0.20195762531419792       0.1487308036457368       0.013534727146354402
0.20195762531419792       0.1487308036457368       -0.013534727146354316
0.19958985680900673       0.1470105191302437       -0.040445499138191184
0.19488207971947621       0.14359011886233047      -0.06688208463230522
0.1878894884276196        0.1385097039078367       -0.09253453883497856
0.17869406467294663       0.13182883748703608      -0.11710211017494751
0.16740361639152473       0.12362584665033803      -0.1402967663405956
0.15415051376649835       0.11399690396523689      -0.1618465711954569
0.13909013730871864       0.10305489998088918      -0.18149887298078266
0.12239905616231944       0.0909281196896417       -0.19902326642641086
0.10427295799294124       0.07775873850278832      -0.21421429404189732
0.08492435472877055       0.06370115537386496      -0.22689385491773928
0.06458009105248302       0.04892018261208739      -0.23691329279570064
0.04347868485474554       0.03358911360871522      -0.24415513892752164
0.02186753083002677       0.01788769113048281      -0.2485344892885899
0.020087022269361845      0.02008643608923418      0.2485344892885899
0.039938542568355016      0.0379608252519083       0.24415513892752164
0.05932181997189195       0.05541360661779989      0.2369132927957006
0.07800960327471568       0.07224016228262402      0.22689385491773925
0.09578279530400381       0.0882432162658772       0.21421429404189732
0.1124330216333974        0.10323514739133756      0.19902326642641094
0.12776507358263142       0.11704018897381244      0.18149887298078274
0.1415991968608299        0.12949648952281723      0.16184657119545692
0.15377319902121542       0.140458010303319        0.14029676634059562
0.16414435101925387       0.14979623750638046      0.11710211017494754
0.17259106058020288       0.15740168895606818      0.09253453883497864
0.1790142977573606        0.16318519768786524      0.0668820846323052
0.1833387559676466        0.16707895734980374      0.040445499138191156
0.18551373489243503       0.1690373171699458       0.013534727146354402
0.18551373489243503       0.1690373171699458       -0.013534727146354316
0.1833387559676466        0.16707895734980374      -0.040445499138191184
0.1790142977573606        0.16318519768786524      -0.06688208463230522
0.17259106058020293       0.1574016889560682       -0.09253453883497856
0.1641443510192539        0.1497962375063805       -0.11710211017494751
0.15377319902121542       0.140458010303319        -0.1402967663405956
0.1415991968608299        0.12949648952281723      -0.1618465711954569
0.12776507358263148       0.11704018897381249      -0.18149887298078266
0.11243302163339747       0.10323514739133761      -0.19902326642641086
0.0957827953040038        0.08824321626587717      -0.21421429404189732
0.07800960327471565       0.07224016228262399      -0.22689385491773928
0.05932181997189191       0.05541360661779985      -0.23691329279570064
0.03993854256835506       0.03796082525190833      -0.24415513892752164
0.020087022269361876      0.02008643608923421      -0.2485344892885899
0.01808643608923418       0.022087022269361843     0.2485344892885899
0.0359608252519083        0.04193854256835502      0.24415513892752164
0.05341360661779989       0.06132181997189195      0.2369132927957006
0.07024016228262402       0.08000960327471568      0.22689385491773925
0.08624321626587719       0.09778279530400381      0.21421429404189732
0.10123514739133756       0.1144330216333974       0.19902326642641094
0.11504018897381244       0.12976507358263142      0.18149887298078274
0.12749648952281722       0.1435991968608299       0.16184657119545692
0.138458010303319         0.15577319902121542      0.14029676634059562
0.14779623750638046       0.16614435101925387      0.11710211017494754
0.15540168895606818       0.17459106058020288      0.09253453883497864
0.16118519768786524       0.1810142977573606       0.0668820846323052
0.16507895734980374       0.1853387559676466       0.040445499138191156
0.1670373171699458        0.18751373489243503      0.013534727146354402
0.1670373171699458        0.18751373489243503      -0.013534727146354316
0.16507895734980374       0.1853387559676466       -0.040445499138191184
0.16118519768786524       0.1810142977573606       -0.06688208463230522
0.1554016889560682        0.17459106058020293      -0.09253453883497856
0.1477962375063805        0.1661443510192539       -0.11710211017494751
0.138458010303319         0.15577319902121542      -0.1402967663405956
0.12749648952281722       0.1435991968608299       -0.1618465711954569
0.11504018897381249       0.12976507358263148      -0.18149887298078266
0.10123514739133761       0.11443302163339747      -0.19902326642641086
0.08624321626587717       0.0977827953040038       -0.21421429404189732
0.07024016228262399       0.08000960327471565      -0.22689385491773928
0.05341360661779985       0.061321819971891914     -0.23691329279570064
0.03596082525190833       0.04193854256835506      -0.24415513892752164
0.018086436089234208      0.022087022269361878     -0.2485344892885899
0.01588769113048279       0.023867530830026733     0.2485344892885899
0.0315891136087152        0.04547868485474551      0.24415513892752164
0.04692018261208743       0.06658009105248307      0.2369132927957006
0.061701155373865         0.08692435472877058      0.22689385491773925
0.07575873850278834       0.10627295799294127      0.21421429404189732
0.08892811968964166       0.12439905616231939      0.19902326642641094
0.10105489998088915       0.14109013730871858      0.18149887298078274
0.1119969039652369        0.15615051376649836      0.16184657119545692
0.12162584665033804       0.16940361639152474      0.14029676634059562
0.12982883748703608       0.18069406467294663      0.11710211017494754
0.1365097039078367        0.18988948842761955      0.09253453883497864
0.1415901188623305        0.19688207971947622      0.0668820846323052
0.14501051913024374       0.20158985680900673      0.040445499138191156
0.14673080364573682       0.20395762531419792      0.013534727146354402
0.14673080364573682       0.20395762531419792      -0.013534727146354316
0.14501051913024374       0.20158985680900673      -0.040445499138191184
0.1415901188623305        0.19688207971947622      -0.06688208463230522
0.13650970390783673       0.1898894884276196       -0.09253453883497856
0.1298288374870361        0.18069406467294663      -0.11710211017494751
0.12162584665033804       0.16940361639152474      -0.1402967663405956
0.1119969039652369        0.15615051376649836      -0.1618465711954569
0.1010548999808892        0.14109013730871864      -0.18149887298078266
0.08892811968964172       0.12439905616231944      -0.19902326642641086
0.07575873850278833       0.10627295799294124      -0.21421429404189732
0.061701155373864974      0.08692435472877055      -0.22689385491773928
0.0469201826120874        0.06658009105248303      -0.23691329279570064
0.031589113608715226      0.045478684854745544     -0.24415513892752164
0.015887691130482814      0.023867530830026767     -0.2485344892885899
0.013514877302992724      0.025408454146842833     0.2485344892885899
0.026871305026378012      0.048542465571367654     0.24415513892752164
0.03991269126699751       0.07113080914125029      0.2369132927957006
0.05248613769503309       0.09290865718085332      0.22689385491773925
0.06444423214712773       0.11362068433358877      0.21421429404189732
0.07564677689922066       0.1330240610182778       0.19902326642641094
0.08596243235667791       0.15089130038396895      0.18149887298078274
0.09527025689095459       0.16701292538527224      0.16184657119545692
0.10346112476961133       0.18119992470918964      0.14029676634059562
0.1104390055557529        0.19328596875994547      0.11710211017494754
0.11612208997709894       0.20312935972142         0.09253453883497864
0.12044374906490289       0.2106146928344882       0.0668820846323052
0.12335331531769081       0.21565420941230468      0.040445499138191156
0.1248166767313905        0.21818882573066836      0.013534727146354402
0.1248166767313905        0.21818882573066836      -0.013534727146354316
0.12335331531769081       0.21565420941230468      -0.040445499138191184
0.12044374906490289       0.2106146928344882       -0.06688208463230522
0.11612208997709897       0.20312935972142004      -0.09253453883497856
0.11043900555575291       0.1932859687599455       -0.11710211017494751
0.10346112476961133       0.18119992470918964      -0.1402967663405956
0.09527025689095459       0.16701292538527224      -0.1618465711954569
0.08596243235667796       0.150891300383969        -0.18149887298078266
0.0756467768992207        0.13302406101827788      -0.19902326642641086
0.06444423214712772       0.11362068433358874      -0.21421429404189732
0.05248613769503307       0.0929086571808533       -0.22689385491773928
0.03991269126699748       0.07113080914125025      -0.23691329279570064
0.026871305026378037      0.048542465571367696     -0.24415513892752164
0.013514877302992745      0.025408454146842868     -0.2485344892885899
0.010993991651601174      0.026692909541492164     0.2485344892885899
0.021859088802989746      0.05109631729555283      0.24415513892752164
0.03246790812411876       0.07492411561851413      0.2369132927957006
0.04269607090818397       0.0978969453610031       0.22689385491773925
0.05242366129824062       0.11974547109854759      0.21421429404189732
0.06153663219098602       0.14021353884317247      0.19902326642641094
0.06992814233477147       0.15906117921470486      0.18149887298078274
0.077499808945592         0.17606742086235044      0.16184657119545692
0.08416286115527649       0.19103288115174555      0.14029676634059562
0.08983918076875319       0.20378210374404795      0.11710211017494754
0.09446221812846253       0.2141656156610882       0.09253453883497864
0.09797777234824534       0.22206167971937452      0.0668820846323052
0.10034462676917652       0.22737772178726373      0.040445499138191156
0.10153503218720626       0.23005141613201335      0.013534727146354402
0.10153503218720626       0.23005141613201335      -0.013534727146354316
0.10034462676917652       0.22737772178726373      -0.040445499138191184
0.09797777234824534       0.22206167971937452      -0.06688208463230522
0.09446221812846255       0.21416561566108824      -0.09253453883497856
0.0898391807687532        0.20378210374404798      -0.11710211017494751
0.08416286115527649       0.19103288115174555      -0.1402967663405956
0.077499808945592         0.17606742086235044      -0.1618465711954569
0.06992814233477151       0.15906117921470492      -0.18149887298078266
0.061536632190986054      0.14021353884317256      -0.19902326642641086
0.05242366129824061       0.11974547109854757      -0.21421429404189732
0.04269607090818395       0.09789694536100306      -0.22689385491773928
0.03246790812411873       0.07492411561851409      -0.23691329279570064
0.021859088802989767      0.05109631729555287      -0.24415513892752164
0.01099399165160119       0.026692909541492206     -0.2485344892885899
0.008352653527034015      0.027706824251881396     0.2485344892885899
0.0166073798283675        0.05311225949338303      0.24415513892752164
0.024667399785485565      0.07791845022470928      0.2369132927957006
0.03243821703373751       0.1018345665400518       0.22689385491773925
0.03982872584581355       0.12458021384232686      0.21421429404189732
0.046752279263098745      0.14588872021345897      0.19902326642641094
0.05312770495204068       0.16551026289879975      0.18149887298078274
0.05888025687554382       0.18321479725051118      0.16184657119545692
0.06394249162191344       0.1987947537907295       0.14029676634059562
0.06825505911719376       0.21206747177391086      0.11710211017494754
0.07176739845052064       0.2228773407170641       0.09253453883497864
0.07443833065457335       0.23109762479038834      0.0668820846323052
0.07623654149131595       0.2366319486790012       0.040445499138191156
0.07714094858280747       0.23941542749538916      0.013534727146354402
0.07714094858280747       0.23941542749538916      -0.013534727146354316
0.07623654149131595       0.2366319486790012       -0.040445499138191184
0.07443833065457335       0.23109762479038834      -0.06688208463230522
0.07176739845052066       0.22287734071706417      -0.09253453883497856
0.06825505911719378       0.2120674717739109       -0.11710211017494751
0.06394249162191344       0.1987947537907295       -0.1402967663405956
0.05888025687554382       0.18321479725051118      -0.1618465711954569
0.05312770495204071       0.16551026289879983      -0.18149887298078266
0.04675227926309877       0.14588872021345903      -0.19902326642641086
0.039828725845813547      0.12458021384232683      -0.21421429404189732
0.0324382170337375        0.10183456654005175      -0.22689385491773928
0.024667399785485548      0.07791845022470922      -0.23691329279570064
0.016607379828367515      0.05311225949338308      -0.24415513892752164
0.008352653527034027      0.027706824251881437     -0.2485344892885899
0.005619801982519549      0.02843908961626819      0.2485344892885899
0.011173716925028008      0.054568205080275795     0.24415513892752164
0.016596630252817327      0.08008100640328544      0.2369132927957006
0.02182496326533611       0.10467837931636151      0.22689385491773925
0.026797418538323035      0.12807194211169073      0.21421429404189732
0.031455698580061545      0.1499874266544363       0.19902326642641094
0.03574518931616832       0.1701678939258531       0.18149887298078274
0.03961560038968128       0.18837674639836102      0.16184657119545692
0.043021554769514074      0.2044005019252324       0.14029676634059562
0.04592312075465697       0.2180512966235742       0.11710211017494754
0.04828628013686122       0.22916908740658878      0.09253453883497864
0.05008332703302772       0.23762352834243855      0.0668820846323052
0.05129319271135458       0.24331549884111967      0.040445499138191156
0.051901692602954116      0.24617826575275323      0.013534727146354402
0.051901692602954116      0.24617826575275323      -0.013534727146354316
0.05129319271135458       0.24331549884111967      -0.040445499138191184
0.05008332703302772       0.23762352834243855      -0.06688208463230522
0.048286280136861225      0.22916908740658884      -0.09253453883497856
0.045923120754656974      0.21805129662357423      -0.11710211017494751
0.043021554769514074      0.2044005019252324       -0.1402967663405956
0.03961560038968128       0.18837674639836102      -0.1618465711954569
0.03574518931616833       0.1701678939258532       -0.18149887298078266
0.031455698580061565      0.14998742665443637      -0.19902326642641086
0.026797418538323032      0.1280719421116907       -0.21421429404189732
0.0218249632653361        0.10467837931636147      -0.22689385491773928
0.016596630252817317      0.08008100640328539      -0.23691329279570064
0.011173716925028016      0.05456820508027584      -0.24415513892752164
0.005619801982519558      0.02843908961626823      -0.2485344892885899
0.0028253787114654355     0.02888168278208396      0.2485344892885899
0.005617632440807329      0.055448202411704936     0.24415513892752164
0.008344024566031082      0.08138809073620618      0.2369132927957006
0.010972590632232531      0.10639722628204895      0.22689385491773925
0.013472513105606342      0.13018239980102894      0.21421429404189732
0.015814482680853118      0.15246475188062766      0.19902326642641094
0.0179710419059863        0.1729830423156606       0.18149887298078274
0.0199169070958521        0.19149671291082887      0.16184657119545692
0.02162926476022085       0.2077887078056145       0.14029676634059562
0.023088039071101376      0.22166801825578925      0.11710211017494754
0.024276127233468663      0.23297192203629918      0.09253453883497864
0.025179599999898335      0.2415678912105758       0.0668820846323052
0.025787864978257028      0.24735514589942023      0.040445499138191156
0.026093790817815446      0.25026583583294304      0.013534727146354402
0.026093790817815446      0.25026583583294304      -0.013534727146354316
0.025787864978257028      0.24735514589942023      -0.040445499138191184
0.025179599999898335      0.2415678912105758       -0.06688208463230522
0.02427612723346867       0.23297192203629924      -0.09253453883497856
0.02308803907110138       0.22166801825578927      -0.11710211017494751
0.02162926476022085       0.2077887078056145       -0.1402967663405956
0.0199169070958521        0.19149671291082887      -0.1618465711954569
0.017971041905986307      0.1729830423156607       -0.18149887298078266