% Model:              loudspeaker_radiation_BEM_60.mph
% Version:            COMSOL 6.1.0.357
% Date:               Nov 6 2023, 10:27
% Dimension:          3
% Nodes:              1682
% Elements:           3304
% Expressions:        1
% Description:        Radiation pattern
% Coordinates
0                         0.002                    2
1.32407609839834E-17      -0.21423803684788353     1.9882759143087192
0.011508658604647537      -0.21393156174341052     1.9882759143087192
2.6326286151572806E-17    -0.4279408804220481      1.953241111420173
0.022882388709622486      -0.4273315233534891      1.953241111420173
3.9103159684388007E-17    -0.63660306027196        1.8953063423656047
0.03398784372854463       -0.6356979653938035      1.8953063423656047
5.1421584422263594E-17    -0.8377782031205292      1.815150839341914
0.044694822355131454      -0.8365879818426853      1.815150839341914
6.313713809799114E-17     -1.0291077143540435      1.7137143523351785
0.054877795054470144      -1.0276463209327653      1.7137143523351785
7.41124665563556E-17      -1.2083484303875303      1.5921861314112875
0.06441737578204168       -1.2066329983245176      1.5921861314112875
8.421889410602117E-17     -1.3733989177068464      1.451990983846262
0.07320172167593712       -1.3714495588746036      1.451990983846262
9.333793212436286E-17     -1.522324110255273       1.2947725695636554
0.0811278443121546        -1.520163679103792       1.2947725695636554
1.0136266822823154E-16    -1.653377996313781       1.122374130724765
0.08810281714970748       -1.6510318219230122      1.122374130724765
1.081990197238956E-16     -1.7650240888920459      0.9368168813995803
0.09404486500935397       -1.7625196780115935      0.9368168813995803
1.137668366406041E-16     -1.8559534396335826      0.7402763106798291
0.09888432281280583       -1.853320154191215       0.7402763106798291
1.1800084141571225E-16    -1.9250999850384458      0.5350566770584416
0.1025644523420761        -1.9223686978983388      0.5350566770584416
1.2085139421441935E-16    -1.9716530450830525      0.32356399310552925
0.1050421074432086        -1.9688557780896843      0.32356399310552925
1.2228507491144581E-16    -1.9950668277022476      0.10827781717083522
0.10628823987548418       -1.99223637625355        0.10827781717083522
1.2228507491144581E-16    -1.9950668277022476      -0.10827781717083453
0.10628823987548418       -1.99223637625355        -0.10827781717083453
1.2085139421441935E-16    -1.9716530450830525      -0.32356399310552947
0.1050421074432086        -1.9688557780896843      -0.32356399310552947
1.1800084141571225E-16    -1.9250999850384458      -0.5350566770584417
0.1025644523420761        -1.9223686978983388      -0.5350566770584417
1.1376683664060413E-16    -1.855953439633583       -0.7402763106798285
0.09888432281280585       -1.8533201541912154      -0.7402763106798285
1.0819901972389562E-16    -1.765024088892046       -0.9368168813995801
0.09404486500935398       -1.7625196780115937      -0.9368168813995801
1.0136266822823154E-16    -1.653377996313781       -1.1223741307247648
0.08810281714970748       -1.6510318219230122      -1.1223741307247648
9.333793212436286E-17     -1.522324110255273       -1.2947725695636552
0.0811278443121546        -1.520163679103792       -1.2947725695636552
8.42188941060212E-17      -1.373398917706847       -1.4519909838462612
0.07320172167593715       -1.3714495588746043      -1.4519909838462612
7.411246655635565E-17     -1.208348430387531       -1.5921861314112868
0.06441737578204172       -1.2066329983245183      -1.5921861314112868
6.313713809799113E-17     -1.0291077143540432      -1.7137143523351785
0.05487779505447014       -1.027646320932765       -1.7137143523351785
5.1421584422263575E-17    -0.8377782031205289      -1.8151508393419142
0.04469482235513144       -0.836587981842685       -1.8151508393419142
3.9103159684387976E-17    -0.6366030602719596      -1.8953063423656051
0.03398784372854461       -0.6356979653938031      -1.8953063423656051
2.632628615157283E-17     -0.4279408804220485      -1.953241111420173
0.022882388709622507      -0.4273315233534895      -1.953241111420173
1.324076098398342E-17     -0.21423803684788387     -1.9882759143087192
0.011508658604647554      -0.21393156174341085     -1.9882759143087192
1.4997597826618576E-32    0.001999999999999755     -2
0.022984694666104984      -0.21301300516697252     1.9882759143087192
0.04569991480235662       -0.42550517943662763     1.953241111420173
0.06787934522138121       -0.6329852463491015      1.8953063423656047
0.08926295238036229       -0.8330206918206793      1.815150839341914
0.10960003303657928       -1.023266283147359       1.7137143523351785
0.1286521535137082        -1.2014915647140378      1.5921861314112875
0.14619594511867462       -1.365607008047276       1.451990983846262
0.16202572293535192       -1.5136885096261719      1.2947725695636554
0.1759558972921434        -1.6439999492369204      1.122374130724765
0.18782314963119565       -1.755013544394972       0.9368168813995803
0.19748834726916542       -1.8454277621977955      0.7402763106798291
0.20483817460072215       -1.9141825786081612      0.5350566770584416
0.2097864616204145        -1.9604719062667857      0.32356399310552925
0.21227519418719845       -1.9837530451296066      0.10827781717083522
0.21227519418719845       -1.9837530451296066      -0.10827781717083453
0.2097864616204145        -1.9604719062667857      -0.32356399310552947
0.20483817460072215       -1.9141825786081612      -0.5350566770584417
0.19748834726916548       -1.845427762197796       -0.7402763106798285
0.18782314963119565       -1.7550135443949721      -0.9368168813995801
0.1759558972921434        -1.6439999492369204      -1.1223741307247648
0.16202572293535192       -1.5136885096261719      -1.2947725695636552
0.14619594511867468       -1.3656070080472766      -1.4519909838462612
0.1286521535137083        -1.2014915647140385      -1.5921861314112868
0.10960003303657925       -1.0232662831473587      -1.7137143523351785
0.08926295238036226       -0.833020691820679       -1.8151508393419142
0.06787934522138117       -0.632985246349101       -1.8953063423656051
0.04569991480235666       -0.425505179436628       -1.953241111420173
0.02298469466610502       -0.21301300516697286     -1.9882759143087192
0.034395578113325276      -0.21148497086698345     1.9882759143087192
0.06838789952144878       -0.4224670256417217      1.953241111420173
0.10157843533533614       -0.6284725926347136      1.8953063423656047
0.13357805686896576       -0.827086444925652       1.815150839341914
0.16401159781738886       -1.0159800166908026      1.7137143523351785
0.19252225273863702       -1.1929387035082588      1.5921861314112875
0.21877576027129897       -1.3558878265699563      1.451990983846262
0.24246432204336515       -1.5029169563938007      1.2947725695636554
0.26331021132671656       -1.6323023108626225      1.122374130724765
0.2810690291290843        -1.742526964993433       0.9368168813995803
0.2955325695487776        -1.83229863549591        0.7402763106798291
0.3065312607985166        -1.9005648316124342      0.5350566770584416
0.31393615327959756       -1.946525194609917       0.32356399310552925
0.3176604313980373        -1.9696408812541728      0.10827781717083522
0.3176604313980373        -1.9696408812541728      -0.10827781717083453
0.31393615327959756       -1.946525194609917       -0.32356399310552947
0.3065312607985166        -1.9005648316124342      -0.5350566770584417
0.29553256954877766       -1.8322986354959105      -0.7402763106798285
0.2810690291290844        -1.7425269649934332      -0.9368168813995801
0.26331021132671656       -1.6323023108626225      -1.1223741307247648
0.24246432204336515       -1.5029169563938007      -1.2947725695636552
0.21877576027129908       -1.355887826569957       -1.4519909838462612
0.19252225273863713       -1.1929387035082595      -1.5921861314112868
0.16401159781738883       -1.0159800166908024      -1.7137143523351785
0.13357805686896573       -0.8270864449256516      -1.8151508393419142
0.10157843533533607       -0.6284725926347131      -1.8953063423656051
0.06838789952144884       -0.4224670256417221      -1.953241111420173
0.03439557811332533       -0.21148497086698378     -1.9882759143087192
0.045708963557424986      -0.20935179022268213     1.9882759143087192
0.09088203130924308       -0.41822567394578786     1.953241111420173
0.134989590338194         -0.6221727958578771      1.8953063423656047
0.17751451984258898       -0.8188020624251622      1.815150839341914
0.2179582539049029        -1.0058081752769947      1.7137143523351785
0.2558466267213138        -1.1809986587215062      1.5921861314112875
0.2907354317622189        -1.3423195645184967      1.451990983846262
0.3222156296876522        -1.4878795525446074      1.2947725695636554
0.3499181439595575        -1.6159720650269975      1.122374130724765
0.37351818792674707       -1.725095334372913       0.9368168813995803
0.39273907265143143       -1.8139699900216288      0.7402763106798291
0.40735545083403635       -1.8815540578945371      0.5350566770584416
0.41719595880425275       -1.9270551765885304      0.32356399310552925
0.4221452256033919        -1.9499398870889904      0.10827781717083522
0.4221452256033919        -1.9499398870889904      -0.10827781717083453
0.41719595880425275       -1.9270551765885304      -0.32356399310552947
0.40735545083403635       -1.8815540578945371      -0.5350566770584417
0.3927390726514315        -1.8139699900216293      -0.7402763106798285
0.3735181879267471        -1.7250953343729132      -0.9368168813995801
0.3499181439595575        -1.6159720650269975      -1.1223741307247648
0.3222156296876522        -1.4878795525446074      -1.2947725695636552
0.290735431762219         -1.3423195645184973      -1.4519909838462612
0.2558466267213139        -1.1809986587215069      -1.5921861314112868
0.21795825390490284       -1.0058081752769945      -1.7137143523351785
0.1775145198425889        -0.8188020624251618      -1.8151508393419142
0.13498959033819388       -0.6221727958578767      -1.8953063423656051
0.09088203130924316       -0.41822567394578825     -1.953241111420173
0.045708963557425056      -0.20935179022268247     -1.9882759143087192
0.056892781978203376      -0.20661950996636735     1.9882759143087192
0.11311854810527892       -0.412793146921016       1.953241111420173
0.16801810268109496       -0.6141037134770068      1.8953063423656047
0.2209477986233914        -0.8081910273014766      1.815150839341914
0.2712870836413273        -0.9927795920955572      1.7137143523351785
0.3184457756437147        -1.165705275707972       1.5921861314112875
0.3618709820844287        -1.324940682605826       1.451990983846262
0.40105358212199704       -1.468618923233563       1.2947725695636554
0.4355341955959719        -1.59505550158609        1.122374130724765
0.46490856883929665       -1.7027680643842908      0.9368168813995803
0.4888323141829386        -1.7904937803118908      0.7402763106798291
0.5070249475864328        -1.8572041455580268      0.5350566770584416
0.5192731770568066        -1.9021170420840563      0.32356399310552925
0.5254334033021827        -1.9247059072424635      0.10827781717083522
0.5254334033021827        -1.9247059072424635      -0.10827781717083453
0.5192731770568066        -1.9021170420840563      -0.32356399310552947
0.5070249475864328        -1.8572041455580268      -0.5350566770584417
0.4888323141829387        -1.7904937803118912      -0.7402763106798285
0.4649085688392967        -1.702768064384291       -0.9368168813995801
0.4355341955959719        -1.59505550158609        -1.1223741307247648
0.40105358212199704       -1.468618923233563       -1.2947725695636552
0.3618709820844289        -1.3249406826058265      -1.4519909838462612
0.31844577564371485       -1.1657052757079727      -1.5921861314112868
0.27128708364132725       -0.992779592095557       -1.7137143523351785
0.22094779862339128       -0.8081910273014763      -1.8151508393419142
0.16801810268109485       -0.6141037134770063      -1.8953063423656051
0.11311854810527902       -0.4127931469210163      -1.953241111420173
0.056892781978203466      -0.2066195099663677      -1.9882759143087192
0.06791533162726425       -0.20329587504327834     1.9882759143087192
0.13503441808677868       -0.40618484365548274     1.953241111420173
0.20057034945737154       -0.6042882181827883      1.8953063423656047
0.263754776863796         -0.7952834176865049      1.815150839341914
0.32384692066478465       -0.9769311980810277      1.7137143523351785
0.38014225541704194       -1.1471019052233802      1.5921861314112875
0.43198076979191313       -1.3038004431608798      1.451990983846262
0.47875470460475855       -1.4451896648070492      1.2947725695636554
0.5199156782357138        -1.5696119108114845      1.122374130724765
0.5549811159027934        -1.6756084441001287      0.9368168813995803
0.5835399074099857        -1.7619365522337262      0.7402763106798291
0.6052572270384216        -1.8275841170749538      0.5350566770584416
0.6198784590717921        -1.8717814809481883      0.32356399310552925
0.6272321829328255        -1.8940104701720508      0.10827781717083522
0.6272321829328255        -1.8940104701720508      -0.10827781717083453
0.6198784590717921        -1.8717814809481883      -0.32356399310552947
0.6052572270384216        -1.8275841170749538      -0.5350566770584417
0.583539907409986         -1.7619365522337267      -0.7402763106798285
0.5549811159027934        -1.6756084441001289      -0.9368168813995801
0.5199156782357138        -1.5696119108114845      -1.1223741307247648
0.47875470460475855       -1.4451896648070492      -1.2947725695636552
0.43198076979191335       -1.3038004431608805      -1.4519909838462612
0.38014225541704216       -1.1471019052233808      -1.5921861314112868
0.3238469206647846        -0.9769311980810275      -1.7137143523351785
0.2637547768637959        -0.7952834176865047      -1.8151508393419142
0.2005703494573714        -0.604288218182788       -1.8953063423656051
0.1350344180867788        -0.40618484365548313     -1.953241111420173
0.06791533162726435       -0.20329587504327865     -1.9882759143087192
0.07874536789006624       -0.19939030665770577     1.9882759143087192
0.1565675183391979        -0.39841949610276317     1.953241111420173
0.23255405778684968       -0.5927541330630525      1.8953063423656047
0.3058141135331533        -0.780115821602067       1.815150839341914
0.3754887784067912        -0.9583079172281125      1.7137143523351785
0.4407611806662735        -1.1252412805425602      1.5921861314112875
0.5008660610742344        -1.2789587704891778      1.451990983846262
0.5550987448623066        -1.4176581900435827      1.2947725695636554
0.6028234033984907        -1.5397134153255878      1.122374130724765
0.6434805086965215        -1.6436934604149191      0.9368168813995803
0.6765933933699252        -1.728379254352765       0.7402763106798291
0.7017738391213055        -1.7927779336341647      0.5350566770584416
0.7187266282469287        -1.8361344826248178      0.32356399310552925
0.7272530047943794        -1.8579405854290791      0.10827781717083522
0.7272530047943794        -1.8579405854290791      -0.10827781717083453
0.7187266282469287        -1.8361344826248178      -0.32356399310552947
0.7017738391213055        -1.7927779336341647      -0.5350566770584417
0.6765933933699254        -1.7283792543527652      -0.7402763106798285
0.6434805086965216        -1.6436934604149194      -0.9368168813995801
0.6028234033984907        -1.5397134153255878      -1.1223741307247648
0.5550987448623066        -1.4176581900435827      -1.2947725695636552
0.5008660610742346        -1.2789587704891783      -1.4519909838462612
0.44076118066627373       -1.125241280542561       -1.5921861314112868
0.3754887784067911        -0.9583079172281123      -1.7137143523351785
0.3058141135331532        -0.7801158216020668      -1.8151508393419142
0.2325540577868495        -0.5927541330630521      -1.8953063423656051
0.15656751833919805       -0.39841949610276356     -1.953241111420173
0.07874536789006636       -0.19939030665770607     -1.9882759143087192
0.08935219185217708       -0.19491387556756476     1.9882759143087192
0.17765681095037544       -0.3895191159841731      1.953241111420173
0.263878566373352         -0.5795341527352087      1.8953063423656047
0.34700658687207503       -0.7627312332471702      1.815150839341914
0.4260662724108709        -0.936962539249743       1.7137143523351785
0.5001307204617572        -1.1001853679812492      1.5921861314112875
0.5683315930891079        -1.2504860810108673      1.451990983846262
0.6298692974180198        -1.386102539899578       1.2947725695636554
0.6840223601296959        -1.5054447656622212      1.122374130724765
0.7301558860764594        -1.607113579817368       0.9368168813995803
0.7677290018468693        -1.689917008475732       0.7402763106798291
0.7963011970119452        -1.7528842571441916      0.5350566770584416
0.8155374887071837        -1.7952770924036132      0.32356399310552925
0.825212349000367         -1.8165984970207183      0.10827781717083522
0.825212349000367         -1.8165984970207183      -0.10827781717083453
0.8155374887071837        -1.7952770924036132      -0.32356399310552947
0.7963011970119452        -1.7528842571441916      -0.5350566770584417
0.7677290018468695        -1.6899170084757325      -0.7402763106798285
0.7301558860764595        -1.6071135798173681      -0.9368168813995801
0.6840223601296959        -1.5054447656622212      -1.1223741307247648
0.6298692974180198        -1.386102539899578       -1.2947725695636552
0.5683315930891081        -1.250486081010868       -1.4519909838462612
0.5001307204617574        -1.1001853679812499      -1.5921861314112868
0.4260662724108708        -0.9369625392497428      -1.7137143523351785
0.34700658687207486       -0.7627312332471698      -1.8151508393419142
0.26387856637335183       -0.5795341527352083      -1.8953063423656051
0.1776568109503756        -0.3895191159841735      -1.953241111420173
0.08935219185217722       -0.19491387556756506     -1.9882759143087192
0.09970573731868212       -0.18987927070312882     1.9882759143087192
0.19824251602912765       -0.3795089323941537      1.953241111420173
0.29445508249399266       -0.5646657506698005      1.8953063423656047
0.3872154323394649        -0.7431789311262806      1.815150839341914
0.4754360352752029        -0.9129555699388991      1.7137143523351785
0.5580825853926517        -1.0720051912458393      1.5921861314112875
0.6341861274561453        -1.2184630836577328      1.451990983846262
0.7028544170171218        -1.3506121622937786      1.2947725695636554
0.7632823811644942        -1.4669031000320232      1.122374130724765
0.8147615572684495        -1.5659724919533047      0.9368168813995803
0.8566883990570278        -1.646658840017354       0.7402763106798291
0.8885713526443355        -1.708016170565353       0.5350566770584416
0.9100366195504238        -1.7493251249961679      0.32356399310552925
0.9208325391466993        -1.7701013935882342      0.10827781717083522
0.9208325391466993        -1.7701013935882342      -0.10827781717083453
0.9100366195504238        -1.7493251249961679      -0.32356399310552947
0.8885713526443355        -1.708016170565353       -0.5350566770584417
0.856688399057028         -1.6466588400173545      -0.7402763106798285
0.8147615572684496        -1.565972491953305       -0.9368168813995801
0.7632823811644942        -1.4669031000320232      -1.1223741307247648
0.7028544170171218        -1.3506121622937786      -1.2947725695636552
0.6341861274561457        -1.2184630836577335      -1.4519909838462612
0.5580825853926519        -1.07200519124584        -1.5921861314112868
0.4754360352752028        -0.9129555699388989      -1.7137143523351785
0.38721543233946476       -0.7431789311262803      -1.8151508393419142
0.2944550824939925        -0.5646657506698002      -1.8953063423656051
0.19824251602912785       -0.379508932394154       -1.953241111420173
0.09970573731868228       -0.18987927070312913     -1.9882759143087192
0.10977665604008037       -0.18430076319887828     1.9882759143087192
0.21826628115784455       -0.3684173202856619      1.953241111420173
0.3241969336917971        -0.5481910729678818      1.8953063423656047
0.42632667359429643       -0.7215143383640487      1.815150839341914
0.5234581230430975        -0.8863550596583649      1.7137143523351785
0.6144525046015443        -1.0407806301089637      1.5921861314112875
0.6982429923428205        -1.1829805510949571      1.451990983846262
0.7738472194085333        -1.3112876585574125      1.2947725695636554
0.8403787953619409        -1.4241976689736389      1.122374130724765
0.8970576983053901        -1.5203868157061138      0.9368168813995803
0.9432194199238834        -1.5987273689559736      0.7402763106798291
0.9783227562375092        -1.6583008573638156      0.5350566770584416
1.0019561527232765        -1.6984088362466174      0.32356399310552925
1.01384252941561          -1.7185810762230525      0.10827781717083522
1.01384252941561          -1.7185810762230525      -0.10827781717083453
1.0019561527232765        -1.6984088362466174      -0.32356399310552947
0.9783227562375092        -1.6583008573638156      -0.5350566770584417
0.9432194199238836        -1.598727368955974       -0.7402763106798285
0.8970576983053902        -1.520386815706114       -0.9368168813995801
0.8403787953619409        -1.4241976689736389      -1.1223741307247648
0.7738472194085333        -1.3112876585574125      -1.2947725695636552
0.6982429923428208        -1.1829805510949578      -1.4519909838462612
0.6144525046015447        -1.0407806301089642      -1.5921861314112868
0.5234581230430974        -0.8863550596583647      -1.7137143523351785
0.4263266735942962        -0.7215143383640483      -1.8151508393419142
0.32419693369179686       -0.5481910729678815      -1.8953063423656051
0.21826628115784474       -0.3684173202856622      -1.953241111420173
0.10977665604008054       -0.1843007631988786      -1.9882759143087192
0.11953640090308616       -0.17819416594041912     1.9882759143087192
0.23767134679875723       -0.35627572003828384     1.953241111420173
0.3530198134581976        -0.5301568188933145      1.8953063423656047
0.4642294455739341        -0.6977988656024404      1.815150839341914
0.569996411889346         -0.8572364104445823      1.7137143523351785
0.6690806914280446        -1.0066001939816034      1.5921861314112875
0.7603206116060593        -1.1441390624161416      1.451990983846262
0.8426464677807579        -1.2682404982687892      1.2947725695636554
0.9150930645597395        -1.3774495256711978      1.122374130724765
0.9768110318343262        -1.470485768627841       0.9368168813995803
1.0270767828674987        -1.5462584622538995      0.7402763106798291
1.0653009976868077        -1.6038792409962432      0.5350566770584416
1.0910355323222298        -1.6426725539072982      0.32356399310552925
1.1039786728844736        -1.6621835848622457      0.10827781717083522
1.1039786728844736        -1.6621835848622457      -0.10827781717083453
1.0910355323222298        -1.6426725539072982      -0.32356399310552947
1.0653009976868077        -1.6038792409962432      -0.5350566770584417
1.027076782867499         -1.5462584622539         -0.7402763106798285
0.9768110318343263        -1.4704857686278412      -0.9368168813995801
0.9150930645597395        -1.3774495256711978      -1.1223741307247648
0.8426464677807579        -1.2682404982687892      -1.2947725695636552
0.7603206116060598        -1.1441390624161423      -1.4519909838462612
0.6690806914280449        -1.0066001939816038      -1.5921861314112868
0.5699964118893459        -0.8572364104445821      -1.7137143523351785
0.4642294455739339        -0.6977988656024402      -1.8151508393419142
0.3530198134581974        -0.5301568188933141      -1.8953063423656051
0.23767134679875743       -0.3562757200382841      -1.953241111420173
0.11953640090308636       -0.1781941659404194      -1.9882759143087192
0.12895730685052345       -0.17157678874114066     1.9882759143087192
0.2564027071850145        -0.3431185483370628      1.953241111420173
0.3808420202089922        -0.510614108498631       1.8953063423656047
0.5008163087531992        -0.6720997369256015      1.815150839341914
0.6149189839779926        -0.8256821622723864      1.7137143523351785
0.7218122963414327        -0.9695607710235454      1.5921861314112875
0.8202430194895457        -1.1020487180409373      1.451990983846262
0.9090571431894885        -1.221592703280669       1.2947725695636554
0.9872134030444066        -1.3267911828159118      1.122374130724765
1.0537954883664515        -1.416410800658003       0.9368168813995803
1.1080227850818027        -1.489400848727741       0.7402763106798291
1.1492595277169635        -1.5449055854469464      0.5350566770584416
1.17702225316765          -1.5822742685260511      0.32356399310552925
1.190985468861654         -1.601068784322465       0.10827781717083522
1.190985468861654         -1.601068784322465       -0.10827781717083453
1.17702225316765          -1.5822742685260511      -0.32356399310552947
1.1492595277169635        -1.5449055854469464      -0.5350566770584417
1.108022785081803         -1.4894008487277413      -0.7402763106798285
1.0537954883664518        -1.4164108006580032      -0.9368168813995801
0.9872134030444066        -1.3267911828159118      -1.1223741307247648
0.9090571431894885        -1.221592703280669       -1.2947725695636552
0.820243019489546         -1.102048718040938       -1.4519909838462612
0.7218122963414331        -0.9695607710235459      -1.5921861314112868
0.6149189839779924        -0.8256821622723862      -1.7137143523351785
0.5008163087531989        -0.6720997369256012      -1.8151508393419142
0.38084202020899194       -0.5106141084986305      -1.8953063423656051
0.25640270718501473       -0.3431185483370631      -1.953241111420173
0.12895730685052365       -0.17157678874114093     -1.9882759143087192
0.13801266930093598       -0.164467389275669       1.9882759143087192
0.2744072662405053        -0.32898310061466624     1.953241111420173
0.407584688876361         -0.48961833771969143     1.8953063423656047
0.5359835536933761        -0.6444897993058859      1.815150839341914
0.6580985013977729        -0.7917817590864791      1.7137143523351785
0.7724978458784787        -0.9297673535033669      1.5921861314112875
0.8778403594177754        -1.0568288276234432      1.451990983846262
0.9728909973599935        -1.1714765018360642      1.2947725695636554
1.0565353778808872        -1.2723662369844544      1.122374130724765
1.127792847095636         -1.3583151931683644      0.9368168813995803
1.1858279763290216        -1.4283156974604165      0.7402763106798291
1.229960356752808         -1.4815470579498593      0.5350566770584416
1.2596725765571464        -1.5173851856048506      0.32356399310552925
1.2746162871309719        -1.5354099111457473      0.10827781717083522
1.2746162871309719        -1.5354099111457473      -0.10827781717083453
1.2596725765571464        -1.5173851856048506      -0.32356399310552947
1.229960356752808         -1.4815470579498593      -0.5350566770584417
1.1858279763290218        -1.428315697460417       -0.7402763106798285
1.127792847095636         -1.3583151931683644      -0.9368168813995801
1.0565353778808872        -1.2723662369844544      -1.1223741307247648
0.9728909973599935        -1.1714765018360642      -1.2947725695636552
0.8778403594177758        -1.0568288276234439      -1.4519909838462612
0.7724978458784791        -0.9297673535033674      -1.5921861314112868
0.6580985013977727        -0.791781759086479       -1.7137143523351785
0.5359835536933759        -0.6444897993058856      -1.8151508393419142
0.40758468887636073       -0.4896183377196911      -1.8953063423656051
0.2744072662405056        -0.3289831006146665      -1.953241111420173
0.13801266930093617       -0.16446738927566926     -1.9882759143087192
0.1466768198456248        -0.15688611990920026     1.9882759143087192
0.2916339880864549        -0.3139094453334299      1.953241111420173
0.4331720144604696        -0.46722902134988553     1.8953063423656047
0.5696314950178849        -0.6150473161111992      1.815150839341914
0.6994125671152581        -0.7556312952628503      1.7137143523351785
0.8209936663422134        -0.8873327401864437      1.5921861314112875
0.9329493654729738        -1.0086075718560297      1.451990983846262
1.0339670862973032        -1.1180339537529185      1.2947725695636554
1.1228624883999188        -1.214328961598864       1.122374130724765
1.1985933544690093        -1.296363624470238       0.9368168813995803
1.260271809341305         -1.3631761609498807      0.7402763106798291
1.307174729526578         -1.4139832551348535      0.5350566770584416
1.338752221169405         -1.4481892402992067      0.32356399310552925
1.3546340670518489        -1.4653930825417183      0.10827781717083522
1.3546340670518489        -1.4653930825417183      -0.10827781717083453
1.338752221169405         -1.4481892402992067      -0.32356399310552947
1.307174729526578         -1.4139832551348535      -0.5350566770584417
1.2602718093413052        -1.363176160949881       -0.7402763106798285
1.1985933544690093        -1.2963636244702381      -0.9368168813995801
1.1228624883999188        -1.214328961598864       -1.1223741307247648
1.0339670862973032        -1.1180339537529185      -1.2947725695636552
0.9329493654729742        -1.0086075718560301      -1.4519909838462612
0.8209936663422138        -0.8873327401864443      -1.5921861314112868
0.699412567115258         -0.7556312952628501      -1.7137143523351785
0.5696314950178847        -0.615047316111199       -1.8151508393419142
0.43317201446046927       -0.4672290213498852      -1.8953063423656051
0.2916339880864552        -0.3139094453334302      -1.953241111420173
0.14667681984562503       -0.1568861199092005      -1.9882759143087192